
     Program PWSCF v.6.7MaX starts on 21May2024 at 13:43:15 

     This program is part of the open-source Quantum ESPRESSO suite
     for quantum simulation of materials; please cite
         "P. Giannozzi et al., J. Phys.:Condens. Matter 21 395502 (2009);
         "P. Giannozzi et al., J. Phys.:Condens. Matter 29 465901 (2017);
          URL http://www.quantum-espresso.org", 
     in publications or presentations arising from this work. More details at
     http://www.quantum-espresso.org/quote

     Parallel version (MPI), running on     1 processors

     MPI processes distributed on     1 nodes
     Waiting for input...
     Reading input from standard input

     Current dimensions of program PWSCF are:
     Max number of different atomic species (ntypx) = 10
     Max number of k-points (npk) =  40000
     Max angular momentum in pseudopotentials (lmaxx) =  3
     file Si.UPF: wavefunction(s)  3S 3P renormalized

     Subspace diagonalization in iterative solution of the eigenvalue problem:
     a serial algorithm will be used


     G-vector sticks info
     --------------------
     sticks:   dense  smooth     PW     G-vecs:    dense   smooth      PW
     Sum         451     451    151                 6423     6423    1243



     bravais-lattice index     =            2
     lattice parameter (alat)  =      10.5500  a.u.
     unit-cell volume          =     293.5603 (a.u.)^3
     number of atoms/cell      =            2
     number of atomic types    =            1
     number of electrons       =         8.00
     number of Kohn-Sham states=            4
     kinetic-energy cutoff     =      30.0000  Ry
     charge density cutoff     =     120.0000  Ry
     scf convergence threshold =      1.0E-06
     mixing beta               =       0.6000
     number of iterations used =            8  plain     mixing
     Exchange-correlation= SLA  PW   PBX  PBC
                           (   1   4   3   4   0   0   0)

     celldm(1)=  10.550000  celldm(2)=   0.000000  celldm(3)=   0.000000
     celldm(4)=   0.000000  celldm(5)=   0.000000  celldm(6)=   0.000000

     crystal axes: (cart. coord. in units of alat)
               a(1) = (  -0.500000   0.000000   0.500000 )  
               a(2) = (   0.000000   0.500000   0.500000 )  
               a(3) = (  -0.500000   0.500000   0.000000 )  

     reciprocal axes: (cart. coord. in units 2 pi/alat)
               b(1) = ( -1.000000 -1.000000  1.000000 )  
               b(2) = (  1.000000  1.000000  1.000000 )  
               b(3) = ( -1.000000  1.000000 -1.000000 )  


     PseudoPot. # 1 for Si read from file:
     ././Si.UPF
     MD5 check sum: c39c59da582df4a0d9f10159256ea34e
     Pseudo is Projector augmented-wave + core cor, Zval =  4.0
     Generated using &quot;atomic&quot; code by A. Dal Corso  v.6.3
     Shape of augmentation charge: PSQ
     Using radial grid of 1141 points,  6 beta functions with: 
                l(1) =   0
                l(2) =   0
                l(3) =   1
                l(4) =   1
                l(5) =   2
                l(6) =   2
     Q(r) pseudized with 0 coefficients 


     atomic species   valence    mass     pseudopotential
        Si             4.00    28.08600     Si( 1.00)

     48 Sym. Ops., with inversion, found (24 have fractional translation)



   Cartesian axes

     site n.     atom                  positions (alat units)
         1           Si  tau(   1) = (   0.0000000   0.0000000   0.0000000  )
         2           Si  tau(   2) = (   0.2500000   0.2500000   0.2500000  )

     number of k points=    28
                       cart. coord. in units 2pi/alat
        k(    1) = (  -0.0833333   0.0833333   0.0833333), wk =   0.0185185
        k(    2) = (  -0.2500000   0.2500000  -0.0833333), wk =   0.0555556
        k(    3) = (  -0.4166667   0.4166667  -0.2500000), wk =   0.0555556
        k(    4) = (   0.4166667  -0.4166667   0.5833333), wk =   0.0555556
        k(    5) = (   0.2500000  -0.2500000   0.4166667), wk =   0.0555556
        k(    6) = (   0.0833333  -0.0833333   0.2500000), wk =   0.0555556
        k(    7) = (  -0.0833333   0.4166667   0.0833333), wk =   0.0555556
        k(    8) = (  -0.2500000   0.5833333  -0.0833333), wk =   0.1111111
        k(    9) = (   0.5833333  -0.2500000   0.7500000), wk =   0.1111111
        k(   10) = (   0.4166667  -0.0833333   0.5833333), wk =   0.1111111
        k(   11) = (   0.2500000   0.0833333   0.4166667), wk =   0.1111111
        k(   12) = (  -0.0833333   0.7500000   0.0833333), wk =   0.0555556
        k(   13) = (   0.7500000  -0.0833333   0.9166667), wk =   0.1111111
        k(   14) = (   0.5833333   0.0833333   0.7500000), wk =   0.1111111
        k(   15) = (   0.4166667   0.2500000   0.5833333), wk =   0.1111111
        k(   16) = (  -0.0833333  -0.9166667   0.0833333), wk =   0.0555556
        k(   17) = (  -0.2500000  -0.7500000  -0.0833333), wk =   0.1111111
        k(   18) = (  -0.0833333  -0.5833333   0.0833333), wk =   0.0555556
        k(   19) = (  -0.2500000   0.2500000   0.2500000), wk =   0.0185185
        k(   20) = (  -0.4166667   0.4166667   0.0833333), wk =   0.0555556
        k(   21) = (   0.4166667  -0.4166667   0.9166667), wk =   0.0555556
        k(   22) = (   0.2500000  -0.2500000   0.7500000), wk =   0.0555556
        k(   23) = (  -0.2500000   0.5833333   0.2500000), wk =   0.0555556
        k(   24) = (   0.5833333  -0.2500000   1.0833333), wk =   0.1111111
        k(   25) = (   0.4166667  -0.0833333   0.9166667), wk =   0.1111111
        k(   26) = (  -0.2500000  -1.0833333   0.2500000), wk =   0.0555556
        k(   27) = (  -0.4166667   0.4166667   0.4166667), wk =   0.0185185
        k(   28) = (   0.4166667  -0.4166667   1.2500000), wk =   0.0555556

     Dense  grid:     6423 G-vectors     FFT dimensions: (  32,  32,  32)

     Estimated max dynamical RAM per process >      26.12 MB

     Check: negative core charge=   -0.000004

     Initial potential from superposition of free atoms

     starting charge    7.99888, renormalised to    8.00000
     Starting wfcs are    8 randomized atomic wfcs
     Checking if some PAW data can be deallocated... 

     total cpu time spent up to now is        0.5 secs

     Self-consistent Calculation

     iteration #  1     ecut=    30.00 Ry     beta= 0.60
     Davidson diagonalization with overlap
     ethr =  1.00E-02,  avg # of iterations =  2.0

     Threshold (ethr) on eigenvalues was too large:
     Diagonalizing with lowered threshold

     Davidson diagonalization with overlap
     ethr =  5.40E-04,  avg # of iterations =  1.7

     total cpu time spent up to now is        1.2 secs

     total energy              =     -93.44914879 Ry
     estimated scf accuracy    <       0.04685731 Ry

     iteration #  2     ecut=    30.00 Ry     beta= 0.60
     Davidson diagonalization with overlap
     ethr =  5.86E-04,  avg # of iterations =  1.0

     total cpu time spent up to now is        1.7 secs

     total energy              =     -93.44961268 Ry
     estimated scf accuracy    <       0.00574554 Ry

     iteration #  3     ecut=    30.00 Ry     beta= 0.60
     Davidson diagonalization with overlap
     ethr =  7.18E-05,  avg # of iterations =  2.0

     total cpu time spent up to now is        2.1 secs

     total energy              =     -93.45031694 Ry
     estimated scf accuracy    <       0.00010712 Ry

     iteration #  4     ecut=    30.00 Ry     beta= 0.60
     Davidson diagonalization with overlap
     ethr =  1.34E-06,  avg # of iterations =  5.1

     total cpu time spent up to now is        2.6 secs

     total energy              =     -93.45044365 Ry
     estimated scf accuracy    <       0.00000534 Ry

     iteration #  5     ecut=    30.00 Ry     beta= 0.60
     Davidson diagonalization with overlap
     ethr =  6.68E-08,  avg # of iterations =  4.1

     total cpu time spent up to now is        3.1 secs

     End of self-consistent calculation

          k =-0.0833 0.0833 0.0833 (   842 PWs)   bands (ev):

    -5.9594   4.4982   5.2368   5.2368

          k =-0.2500 0.2500-0.0833 (   820 PWs)   bands (ev):

    -5.5152   2.4803   4.0899   5.0307

          k =-0.4167 0.4167-0.2500 (   818 PWs)   bands (ev):

    -4.5059  -0.1019   3.6307   4.4345

          k = 0.4167-0.4167 0.5833 (   815 PWs)   bands (ev):

    -3.8773  -1.1503   3.6789   4.0837

          k = 0.2500-0.2500 0.4167 (   816 PWs)   bands (ev):

    -4.8842   0.6860   4.1455   4.1496

          k = 0.0833-0.0833 0.2500 (   824 PWs)   bands (ev):

    -5.7349   3.4361   4.6443   4.7885

          k =-0.0833 0.4167 0.0833 (   826 PWs)   bands (ev):

    -5.2899   2.2438   3.9308   3.9653

          k =-0.2500 0.5833-0.0833 (   820 PWs)   bands (ev):

    -4.4445   0.5015   2.7203   3.5994

          k = 0.5833-0.2500 0.7500 (   813 PWs)   bands (ev):

    -3.4294  -1.0930   2.1371   3.3953

          k = 0.4167-0.0833 0.5833 (   815 PWs)   bands (ev):

    -4.0832  -0.1336   2.1252   3.8380

          k = 0.2500 0.0833 0.4167 (   824 PWs)   bands (ev):

    -5.0811   1.4856   3.3653   4.4449

          k =-0.0833 0.7500 0.0833 (   812 PWs)   bands (ev):

    -3.7791  -0.3163   2.6976   3.0015

          k = 0.7500-0.0833 0.9167 (   808 PWs)   bands (ev):

    -2.6749  -1.5742   1.9362   2.6371

          k = 0.5833 0.0833 0.7500 (   813 PWs)   bands (ev):

    -3.0372  -1.2270   1.4838   3.1403

          k = 0.4167 0.2500 0.5833 (   815 PWs)   bands (ev):

    -3.9878  -0.7133   2.9573   3.9246

          k =-0.0833-0.9167 0.0833 (   805 PWs)   bands (ev):

    -2.7514  -1.5779   2.4484   2.7992

          k =-0.2500-0.7500-0.0833 (   809 PWs)   bands (ev):

    -3.6274  -0.5183   2.2197   2.9541

          k =-0.0833-0.5833 0.0833 (   824 PWs)   bands (ev):

    -4.6331   0.9788   3.1965   3.3978

          k =-0.2500 0.2500 0.2500 (   815 PWs)   bands (ev):

    -5.3022   1.5773   4.6610   4.6610

          k =-0.4167 0.4167 0.0833 (   816 PWs)   bands (ev):

    -4.6721   0.6471   2.6847   4.4968

          k = 0.4167-0.4167 0.9167 (   811 PWs)   bands (ev):

    -3.5881  -0.7320   1.6706   3.7724

          k = 0.2500-0.2500 0.7500 (   808 PWs)   bands (ev):

    -3.5357  -0.8082   2.1008   3.3282

          k =-0.2500 0.5833 0.2500 (   815 PWs)   bands (ev):

    -4.2807  -0.0973   3.0790   3.6758

          k = 0.5833-0.2500 1.0833 (   814 PWs)   bands (ev):

    -3.3556  -0.8672   1.7680   2.9597

          k = 0.4167-0.0833 0.9167 (   809 PWs)   bands (ev):

    -2.5878  -1.5817   1.6371   2.3505

          k =-0.2500-1.0833 0.2500 (   814 PWs)   bands (ev):

    -2.7859  -1.4736   1.5196   3.1466

          k =-0.4167 0.4167 0.4167 (   811 PWs)   bands (ev):

    -4.2095  -0.7793   4.2899   4.2899

          k = 0.4167-0.4167 1.2500 (   818 PWs)   bands (ev):

    -3.6563  -1.0872   2.5661   3.8881

     highest occupied level (ev):     5.2368

!    total energy              =     -93.45044713 Ry

     total all-electron energy =     -1160.142177 Ry
     estimated scf accuracy    <       0.00000014 Ry

     The total energy is the sum of the following terms:
     one-electron contribution =       5.09851749 Ry
     hartree contribution      =       1.17489893 Ry
     xc contribution           =     -12.21043187 Ry
     ewald contribution        =     -16.33910312 Ry
     one-center paw contrib.   =     -71.17432855 Ry

     convergence has been achieved in   5 iterations

     Writing output data file ././silicon.save/

     init_run     :      0.56s CPU      0.48s WALL (       1 calls)
     electrons    :      3.69s CPU      2.57s WALL (       1 calls)

     Called by init_run:
     wfcinit      :      0.15s CPU      0.09s WALL (       1 calls)
     potinit      :      0.20s CPU      0.22s WALL (       1 calls)
     hinit0       :      0.20s CPU      0.16s WALL (       1 calls)

     Called by electrons:
     c_bands      :      1.78s CPU      1.09s WALL (       6 calls)
     sum_band     :      0.47s CPU      0.26s WALL (       6 calls)
     v_of_rho     :      0.07s CPU      0.05s WALL (       6 calls)
     newd         :      0.05s CPU      0.04s WALL (       6 calls)
     PAW_pot      :      1.51s CPU      1.34s WALL (       6 calls)
     mix_rho      :      0.00s CPU      0.00s WALL (       6 calls)

     Called by c_bands:
     init_us_2    :      0.15s CPU      0.09s WALL (     364 calls)
     cegterg      :      1.20s CPU      0.72s WALL (     168 calls)

     Called by *egterg:
     cdiaghg      :      0.03s CPU      0.02s WALL (     586 calls)
     h_psi        :      1.16s CPU      0.70s WALL (     642 calls)
     s_psi        :      0.03s CPU      0.02s WALL (     642 calls)
     g_psi        :      0.01s CPU      0.01s WALL (     446 calls)

     Called by h_psi:
     h_psi:calbec :      0.08s CPU      0.09s WALL (     642 calls)
     vloc_psi     :      1.03s CPU      0.58s WALL (     642 calls)
     add_vuspsi   :      0.04s CPU      0.02s WALL (     642 calls)

     General routines
     calbec       :      0.10s CPU      0.10s WALL (     810 calls)
     fft          :      0.01s CPU      0.01s WALL (      67 calls)
     ffts         :      0.00s CPU      0.00s WALL (       6 calls)
     fftw         :      0.79s CPU      0.45s WALL (    5080 calls)

     Parallel routines

     PWSCF        :      4.34s CPU      3.13s WALL


   This run was terminated on:  13:43:18  21May2024            

=------------------------------------------------------------------------------=
   JOB DONE.
=------------------------------------------------------------------------------=
