
     Program PWSCF v.6.7MaX starts on 21May2024 at 13:43: 1 

     This program is part of the open-source Quantum ESPRESSO suite
     for quantum simulation of materials; please cite
         "P. Giannozzi et al., J. Phys.:Condens. Matter 21 395502 (2009);
         "P. Giannozzi et al., J. Phys.:Condens. Matter 29 465901 (2017);
          URL http://www.quantum-espresso.org", 
     in publications or presentations arising from this work. More details at
     http://www.quantum-espresso.org/quote

     Parallel version (MPI), running on     1 processors

     MPI processes distributed on     1 nodes
     Waiting for input...
     Reading input from standard input

     Current dimensions of program PWSCF are:
     Max number of different atomic species (ntypx) = 10
     Max number of k-points (npk) =  40000
     Max angular momentum in pseudopotentials (lmaxx) =  3
     file Si.UPF: wavefunction(s)  3S 3P renormalized

     Subspace diagonalization in iterative solution of the eigenvalue problem:
     a serial algorithm will be used


     G-vector sticks info
     --------------------
     sticks:   dense  smooth     PW     G-vecs:    dense   smooth      PW
     Sum         433     433    151                 5961     5961    1139



     bravais-lattice index     =            2
     lattice parameter (alat)  =      10.2500  a.u.
     unit-cell volume          =     269.2227 (a.u.)^3
     number of atoms/cell      =            2
     number of atomic types    =            1
     number of electrons       =         8.00
     number of Kohn-Sham states=            4
     kinetic-energy cutoff     =      30.0000  Ry
     charge density cutoff     =     120.0000  Ry
     scf convergence threshold =      1.0E-06
     mixing beta               =       0.6000
     number of iterations used =            8  plain     mixing
     Exchange-correlation= SLA  PW   PBX  PBC
                           (   1   4   3   4   0   0   0)

     celldm(1)=  10.250000  celldm(2)=   0.000000  celldm(3)=   0.000000
     celldm(4)=   0.000000  celldm(5)=   0.000000  celldm(6)=   0.000000

     crystal axes: (cart. coord. in units of alat)
               a(1) = (  -0.500000   0.000000   0.500000 )  
               a(2) = (   0.000000   0.500000   0.500000 )  
               a(3) = (  -0.500000   0.500000   0.000000 )  

     reciprocal axes: (cart. coord. in units 2 pi/alat)
               b(1) = ( -1.000000 -1.000000  1.000000 )  
               b(2) = (  1.000000  1.000000  1.000000 )  
               b(3) = ( -1.000000  1.000000 -1.000000 )  


     PseudoPot. # 1 for Si read from file:
     ././Si.UPF
     MD5 check sum: c39c59da582df4a0d9f10159256ea34e
     Pseudo is Projector augmented-wave + core cor, Zval =  4.0
     Generated using &quot;atomic&quot; code by A. Dal Corso  v.6.3
     Shape of augmentation charge: PSQ
     Using radial grid of 1141 points,  6 beta functions with: 
                l(1) =   0
                l(2) =   0
                l(3) =   1
                l(4) =   1
                l(5) =   2
                l(6) =   2
     Q(r) pseudized with 0 coefficients 


     atomic species   valence    mass     pseudopotential
        Si             4.00    28.08600     Si( 1.00)

     48 Sym. Ops., with inversion, found (24 have fractional translation)



   Cartesian axes

     site n.     atom                  positions (alat units)
         1           Si  tau(   1) = (   0.0000000   0.0000000   0.0000000  )
         2           Si  tau(   2) = (   0.2500000   0.2500000   0.2500000  )

     number of k points=    28
                       cart. coord. in units 2pi/alat
        k(    1) = (  -0.0833333   0.0833333   0.0833333), wk =   0.0185185
        k(    2) = (  -0.2500000   0.2500000  -0.0833333), wk =   0.0555556
        k(    3) = (  -0.4166667   0.4166667  -0.2500000), wk =   0.0555556
        k(    4) = (   0.4166667  -0.4166667   0.5833333), wk =   0.0555556
        k(    5) = (   0.2500000  -0.2500000   0.4166667), wk =   0.0555556
        k(    6) = (   0.0833333  -0.0833333   0.2500000), wk =   0.0555556
        k(    7) = (  -0.0833333   0.4166667   0.0833333), wk =   0.0555556
        k(    8) = (  -0.2500000   0.5833333  -0.0833333), wk =   0.1111111
        k(    9) = (   0.5833333  -0.2500000   0.7500000), wk =   0.1111111
        k(   10) = (   0.4166667  -0.0833333   0.5833333), wk =   0.1111111
        k(   11) = (   0.2500000   0.0833333   0.4166667), wk =   0.1111111
        k(   12) = (  -0.0833333   0.7500000   0.0833333), wk =   0.0555556
        k(   13) = (   0.7500000  -0.0833333   0.9166667), wk =   0.1111111
        k(   14) = (   0.5833333   0.0833333   0.7500000), wk =   0.1111111
        k(   15) = (   0.4166667   0.2500000   0.5833333), wk =   0.1111111
        k(   16) = (  -0.0833333  -0.9166667   0.0833333), wk =   0.0555556
        k(   17) = (  -0.2500000  -0.7500000  -0.0833333), wk =   0.1111111
        k(   18) = (  -0.0833333  -0.5833333   0.0833333), wk =   0.0555556
        k(   19) = (  -0.2500000   0.2500000   0.2500000), wk =   0.0185185
        k(   20) = (  -0.4166667   0.4166667   0.0833333), wk =   0.0555556
        k(   21) = (   0.4166667  -0.4166667   0.9166667), wk =   0.0555556
        k(   22) = (   0.2500000  -0.2500000   0.7500000), wk =   0.0555556
        k(   23) = (  -0.2500000   0.5833333   0.2500000), wk =   0.0555556
        k(   24) = (   0.5833333  -0.2500000   1.0833333), wk =   0.1111111
        k(   25) = (   0.4166667  -0.0833333   0.9166667), wk =   0.1111111
        k(   26) = (  -0.2500000  -1.0833333   0.2500000), wk =   0.0555556
        k(   27) = (  -0.4166667   0.4166667   0.4166667), wk =   0.0185185
        k(   28) = (   0.4166667  -0.4166667   1.2500000), wk =   0.0555556

     Dense  grid:     5961 G-vectors     FFT dimensions: (  32,  32,  32)

     Estimated max dynamical RAM per process >      24.44 MB

     Check: negative core charge=   -0.000003

     Initial potential from superposition of free atoms

     starting charge    7.99888, renormalised to    8.00000
     Starting wfcs are    8 randomized atomic wfcs
     Checking if some PAW data can be deallocated... 

     total cpu time spent up to now is        0.6 secs

     Self-consistent Calculation

     iteration #  1     ecut=    30.00 Ry     beta= 0.60
     Davidson diagonalization with overlap
     ethr =  1.00E-02,  avg # of iterations =  2.0

     Threshold (ethr) on eigenvalues was too large:
     Diagonalizing with lowered threshold

     Davidson diagonalization with overlap
     ethr =  6.27E-04,  avg # of iterations =  1.5

     total cpu time spent up to now is        1.2 secs

     total energy              =     -93.45108877 Ry
     estimated scf accuracy    <       0.05429298 Ry

     iteration #  2     ecut=    30.00 Ry     beta= 0.60
     Davidson diagonalization with overlap
     ethr =  6.79E-04,  avg # of iterations =  1.0

     total cpu time spent up to now is        1.6 secs

     total energy              =     -93.45182033 Ry
     estimated scf accuracy    <       0.00614453 Ry

     iteration #  3     ecut=    30.00 Ry     beta= 0.60
     Davidson diagonalization with overlap
     ethr =  7.68E-05,  avg # of iterations =  2.0

     total cpu time spent up to now is        2.1 secs

     total energy              =     -93.45277896 Ry
     estimated scf accuracy    <       0.00014697 Ry

     iteration #  4     ecut=    30.00 Ry     beta= 0.60
     Davidson diagonalization with overlap
     ethr =  1.84E-06,  avg # of iterations =  4.4

     total cpu time spent up to now is        2.5 secs

     total energy              =     -93.45289886 Ry
     estimated scf accuracy    <       0.00001594 Ry

     iteration #  5     ecut=    30.00 Ry     beta= 0.60
     Davidson diagonalization with overlap
     ethr =  1.99E-07,  avg # of iterations =  3.8

     total cpu time spent up to now is        3.0 secs

     End of self-consistent calculation

          k =-0.0833 0.0833 0.0833 (   737 PWs)   bands (ev):

    -5.6539   5.3844   6.0997   6.0997

          k =-0.2500 0.2500-0.0833 (   754 PWs)   bands (ev):

    -5.1742   3.2960   4.8522   5.8895

          k =-0.4167 0.4167-0.2500 (   752 PWs)   bands (ev):

    -4.0737   0.5133   4.3881   5.2474

          k = 0.4167-0.4167 0.5833 (   749 PWs)   bands (ev):

    -3.3676  -0.6417   4.4572   4.8629

          k = 0.2500-0.2500 0.4167 (   756 PWs)   bands (ev):

    -4.4889   1.3663   4.9214   4.9605

          k = 0.0833-0.0833 0.2500 (   751 PWs)   bands (ev):

    -5.4118   4.3142   5.4461   5.6392

          k =-0.0833 0.4167 0.0833 (   745 PWs)   bands (ev):

    -4.9315   3.1155   4.6981   4.7098

          k =-0.2500 0.5833-0.0833 (   748 PWs)   bands (ev):

    -4.0148   1.2652   3.3657   4.3206

          k = 0.5833-0.2500 0.7500 (   743 PWs)   bands (ev):

    -2.8875  -0.5043   2.7626   4.0903

          k = 0.4167-0.0833 0.5833 (   751 PWs)   bands (ev):

    -3.6168   0.5653   2.7166   4.5826

          k = 0.2500 0.0833 0.4167 (   754 PWs)   bands (ev):

    -4.7044   2.2685   4.0690   5.2592

          k =-0.0833 0.7500 0.0833 (   748 PWs)   bands (ev):

    -3.2987   0.4386   3.3282   3.6734

          k = 0.7500-0.0833 0.9167 (   743 PWs)   bands (ev):

    -2.0931  -0.9102   2.4756   3.2609

          k = 0.5833 0.0833 0.7500 (   741 PWs)   bands (ev):

    -2.4646  -0.5771   1.9889   3.8117

          k = 0.4167 0.2500 0.5833 (   750 PWs)   bands (ev):

    -3.5028  -0.1327   3.6729   4.6822

          k =-0.0833-0.9167 0.0833 (   747 PWs)   bands (ev):

    -2.1868  -0.9189   3.0562   3.4567

          k =-0.2500-0.7500-0.0833 (   748 PWs)   bands (ev):

    -3.1283   0.2126   2.8024   3.6040

          k =-0.0833-0.5833 0.0833 (   741 PWs)   bands (ev):

    -4.2221   1.8118   3.8789   4.0987

          k =-0.2500 0.2500 0.2500 (   754 PWs)   bands (ev):

    -4.9431   2.3078   5.4812   5.4812

          k =-0.4167 0.4167 0.0833 (   746 PWs)   bands (ev):

    -4.2591   1.3751   3.3296   5.3116

          k = 0.4167-0.4167 0.9167 (   744 PWs)   bands (ev):

    -3.0702  -0.0721   2.2112   4.5171

          k = 0.2500-0.2500 0.7500 (   748 PWs)   bands (ev):

    -3.0181  -0.1516   2.6962   4.0302

          k =-0.2500 0.5833 0.2500 (   752 PWs)   bands (ev):

    -3.8318   0.5600   3.8040   4.4064

          k = 0.5833-0.2500 1.0833 (   742 PWs)   bands (ev):

    -2.8218  -0.1816   2.3115   3.6004

          k = 0.4167-0.0833 0.9167 (   743 PWs)   bands (ev):

    -1.9840  -0.9180   2.1424   2.9255

          k =-0.2500-1.0833 0.2500 (   742 PWs)   bands (ev):

    -2.1959  -0.8260   2.0151   3.8341

          k =-0.4167 0.4167 0.4167 (   760 PWs)   bands (ev):

    -3.7409  -0.2379   5.0910   5.0910

          k = 0.4167-0.4167 1.2500 (   747 PWs)   bands (ev):

    -3.1305  -0.5391   3.2431   4.6454

     highest occupied level (ev):     6.0997

!    total energy              =     -93.45290597 Ry

     total all-electron energy =     -1160.144636 Ry
     estimated scf accuracy    <       0.00000049 Ry

     The total energy is the sum of the following terms:
     one-electron contribution =       5.76759387 Ry
     hartree contribution      =       1.09698075 Ry
     xc contribution           =     -12.31286377 Ry
     ewald contribution        =     -16.81732076 Ry
     one-center paw contrib.   =     -71.18729607 Ry

     convergence has been achieved in   5 iterations

     Writing output data file ././silicon.save/

     init_run     :      0.60s CPU      0.51s WALL (       1 calls)
     electrons    :      3.48s CPU      2.46s WALL (       1 calls)

     Called by init_run:
     wfcinit      :      0.15s CPU      0.12s WALL (       1 calls)
     potinit      :      0.20s CPU      0.22s WALL (       1 calls)
     hinit0       :      0.23s CPU      0.16s WALL (       1 calls)

     Called by electrons:
     c_bands      :      1.55s CPU      0.98s WALL (       6 calls)
     sum_band     :      0.49s CPU      0.25s WALL (       6 calls)
     v_of_rho     :      0.08s CPU      0.06s WALL (       6 calls)
     newd         :      0.05s CPU      0.04s WALL (       6 calls)
     PAW_pot      :      1.50s CPU      1.34s WALL (       6 calls)
     mix_rho      :      0.00s CPU      0.00s WALL (       6 calls)

     Called by c_bands:
     init_us_2    :      0.13s CPU      0.08s WALL (     364 calls)
     cegterg      :      1.08s CPU      0.67s WALL (     168 calls)

     Called by *egterg:
     cdiaghg      :      0.02s CPU      0.01s WALL (     552 calls)
     h_psi        :      1.08s CPU      0.69s WALL (     608 calls)
     s_psi        :      0.03s CPU      0.02s WALL (     608 calls)
     g_psi        :      0.01s CPU      0.01s WALL (     412 calls)

     Called by h_psi:
     h_psi:calbec :      0.09s CPU      0.10s WALL (     608 calls)
     vloc_psi     :      0.95s CPU      0.56s WALL (     608 calls)
     add_vuspsi   :      0.03s CPU      0.02s WALL (     608 calls)

     General routines
     calbec       :      0.10s CPU      0.11s WALL (     776 calls)
     fft          :      0.01s CPU      0.01s WALL (      67 calls)
     ffts         :      0.00s CPU      0.00s WALL (       6 calls)
     fftw         :      0.74s CPU      0.44s WALL (    5002 calls)

     Parallel routines

     PWSCF        :      4.15s CPU      3.04s WALL


   This run was terminated on:  13:43: 4  21May2024            

=------------------------------------------------------------------------------=
   JOB DONE.
=------------------------------------------------------------------------------=
