
     Program PWSCF v.6.7MaX starts on 21May2024 at 13:42:38 

     This program is part of the open-source Quantum ESPRESSO suite
     for quantum simulation of materials; please cite
         "P. Giannozzi et al., J. Phys.:Condens. Matter 21 395502 (2009);
         "P. Giannozzi et al., J. Phys.:Condens. Matter 29 465901 (2017);
          URL http://www.quantum-espresso.org", 
     in publications or presentations arising from this work. More details at
     http://www.quantum-espresso.org/quote

     Parallel version (MPI), running on     1 processors

     MPI processes distributed on     1 nodes
     Waiting for input...
     Reading input from standard input

     Current dimensions of program PWSCF are:
     Max number of different atomic species (ntypx) = 10
     Max number of k-points (npk) =  40000
     Max angular momentum in pseudopotentials (lmaxx) =  3
     file Si.UPF: wavefunction(s)  3S 3P renormalized

     Subspace diagonalization in iterative solution of the eigenvalue problem:
     a serial algorithm will be used


     G-vector sticks info
     --------------------
     sticks:   dense  smooth     PW     G-vecs:    dense   smooth      PW
     Sum         421     421    139                 5577     5577    1067



     bravais-lattice index     =            2
     lattice parameter (alat)  =      10.0000  a.u.
     unit-cell volume          =     250.0000 (a.u.)^3
     number of atoms/cell      =            2
     number of atomic types    =            1
     number of electrons       =         8.00
     number of Kohn-Sham states=            4
     kinetic-energy cutoff     =      30.0000  Ry
     charge density cutoff     =     120.0000  Ry
     scf convergence threshold =      1.0E-06
     mixing beta               =       0.6000
     number of iterations used =            8  plain     mixing
     Exchange-correlation= SLA  PW   PBX  PBC
                           (   1   4   3   4   0   0   0)

     celldm(1)=  10.000000  celldm(2)=   0.000000  celldm(3)=   0.000000
     celldm(4)=   0.000000  celldm(5)=   0.000000  celldm(6)=   0.000000

     crystal axes: (cart. coord. in units of alat)
               a(1) = (  -0.500000   0.000000   0.500000 )  
               a(2) = (   0.000000   0.500000   0.500000 )  
               a(3) = (  -0.500000   0.500000   0.000000 )  

     reciprocal axes: (cart. coord. in units 2 pi/alat)
               b(1) = ( -1.000000 -1.000000  1.000000 )  
               b(2) = (  1.000000  1.000000  1.000000 )  
               b(3) = ( -1.000000  1.000000 -1.000000 )  


     PseudoPot. # 1 for Si read from file:
     ././Si.UPF
     MD5 check sum: c39c59da582df4a0d9f10159256ea34e
     Pseudo is Projector augmented-wave + core cor, Zval =  4.0
     Generated using &quot;atomic&quot; code by A. Dal Corso  v.6.3
     Shape of augmentation charge: PSQ
     Using radial grid of 1141 points,  6 beta functions with: 
                l(1) =   0
                l(2) =   0
                l(3) =   1
                l(4) =   1
                l(5) =   2
                l(6) =   2
     Q(r) pseudized with 0 coefficients 


     atomic species   valence    mass     pseudopotential
        Si             4.00    28.08600     Si( 1.00)

     48 Sym. Ops., with inversion, found (24 have fractional translation)



   Cartesian axes

     site n.     atom                  positions (alat units)
         1           Si  tau(   1) = (   0.0000000   0.0000000   0.0000000  )
         2           Si  tau(   2) = (   0.2500000   0.2500000   0.2500000  )

     number of k points=    28
                       cart. coord. in units 2pi/alat
        k(    1) = (  -0.0833333   0.0833333   0.0833333), wk =   0.0185185
        k(    2) = (  -0.2500000   0.2500000  -0.0833333), wk =   0.0555556
        k(    3) = (  -0.4166667   0.4166667  -0.2500000), wk =   0.0555556
        k(    4) = (   0.4166667  -0.4166667   0.5833333), wk =   0.0555556
        k(    5) = (   0.2500000  -0.2500000   0.4166667), wk =   0.0555556
        k(    6) = (   0.0833333  -0.0833333   0.2500000), wk =   0.0555556
        k(    7) = (  -0.0833333   0.4166667   0.0833333), wk =   0.0555556
        k(    8) = (  -0.2500000   0.5833333  -0.0833333), wk =   0.1111111
        k(    9) = (   0.5833333  -0.2500000   0.7500000), wk =   0.1111111
        k(   10) = (   0.4166667  -0.0833333   0.5833333), wk =   0.1111111
        k(   11) = (   0.2500000   0.0833333   0.4166667), wk =   0.1111111
        k(   12) = (  -0.0833333   0.7500000   0.0833333), wk =   0.0555556
        k(   13) = (   0.7500000  -0.0833333   0.9166667), wk =   0.1111111
        k(   14) = (   0.5833333   0.0833333   0.7500000), wk =   0.1111111
        k(   15) = (   0.4166667   0.2500000   0.5833333), wk =   0.1111111
        k(   16) = (  -0.0833333  -0.9166667   0.0833333), wk =   0.0555556
        k(   17) = (  -0.2500000  -0.7500000  -0.0833333), wk =   0.1111111
        k(   18) = (  -0.0833333  -0.5833333   0.0833333), wk =   0.0555556
        k(   19) = (  -0.2500000   0.2500000   0.2500000), wk =   0.0185185
        k(   20) = (  -0.4166667   0.4166667   0.0833333), wk =   0.0555556
        k(   21) = (   0.4166667  -0.4166667   0.9166667), wk =   0.0555556
        k(   22) = (   0.2500000  -0.2500000   0.7500000), wk =   0.0555556
        k(   23) = (  -0.2500000   0.5833333   0.2500000), wk =   0.0555556
        k(   24) = (   0.5833333  -0.2500000   1.0833333), wk =   0.1111111
        k(   25) = (   0.4166667  -0.0833333   0.9166667), wk =   0.1111111
        k(   26) = (  -0.2500000  -1.0833333   0.2500000), wk =   0.0555556
        k(   27) = (  -0.4166667   0.4166667   0.4166667), wk =   0.0185185
        k(   28) = (   0.4166667  -0.4166667   1.2500000), wk =   0.0555556

     Dense  grid:     5577 G-vectors     FFT dimensions: (  32,  32,  32)

     Estimated max dynamical RAM per process >      23.06 MB

     Check: negative core charge=   -0.000003

     Initial potential from superposition of free atoms

     starting charge    7.99888, renormalised to    8.00000
     Starting wfcs are    8 randomized atomic wfcs
     Checking if some PAW data can be deallocated... 

     total cpu time spent up to now is        0.5 secs

     Self-consistent Calculation

     iteration #  1     ecut=    30.00 Ry     beta= 0.60
     Davidson diagonalization with overlap
     ethr =  1.00E-02,  avg # of iterations =  2.0

     Threshold (ethr) on eigenvalues was too large:
     Diagonalizing with lowered threshold

     Davidson diagonalization with overlap
     ethr =  7.08E-04,  avg # of iterations =  1.2

     total cpu time spent up to now is        1.1 secs

     total energy              =     -93.44222358 Ry
     estimated scf accuracy    <       0.06111512 Ry

     iteration #  2     ecut=    30.00 Ry     beta= 0.60
     Davidson diagonalization with overlap
     ethr =  7.64E-04,  avg # of iterations =  1.0

     total cpu time spent up to now is        1.5 secs

     total energy              =     -93.44323112 Ry
     estimated scf accuracy    <       0.00649735 Ry

     iteration #  3     ecut=    30.00 Ry     beta= 0.60
     Davidson diagonalization with overlap
     ethr =  8.12E-05,  avg # of iterations =  2.1

     total cpu time spent up to now is        1.9 secs

     total energy              =     -93.44446104 Ry
     estimated scf accuracy    <       0.00018580 Ry

     iteration #  4     ecut=    30.00 Ry     beta= 0.60
     Davidson diagonalization with overlap
     ethr =  2.32E-06,  avg # of iterations =  4.2

     total cpu time spent up to now is        2.4 secs

     total energy              =     -93.44457163 Ry
     estimated scf accuracy    <       0.00003415 Ry

     iteration #  5     ecut=    30.00 Ry     beta= 0.60
     Davidson diagonalization with overlap
     ethr =  4.27E-07,  avg # of iterations =  2.9

     total cpu time spent up to now is        2.8 secs

     End of self-consistent calculation

          k =-0.0833 0.0833 0.0833 (   700 PWs)   bands (ev):

    -5.3718   6.1798   6.8940   6.8940

          k =-0.2500 0.2500-0.0833 (   688 PWs)   bands (ev):

    -4.8602   4.0240   5.5563   6.6828

          k =-0.4167 0.4167-0.2500 (   690 PWs)   bands (ev):

    -3.6770   1.0651   5.0886   5.9999

          k = 0.4167-0.4167 0.5833 (   695 PWs)   bands (ev):

    -2.8973  -0.1885   5.1780   5.5841

          k = 0.2500-0.2500 0.4167 (   695 PWs)   bands (ev):

    -4.1259   1.9760   5.6343   5.7151

          k = 0.0833-0.0833 0.2500 (   687 PWs)   bands (ev):

    -5.1138   5.0950   6.1844   6.4266

          k =-0.0833 0.4167 0.0833 (   688 PWs)   bands (ev):

    -4.6019   3.8939   5.3966   5.4130

          k =-0.2500 0.5833-0.0833 (   689 PWs)   bands (ev):

    -3.6209   1.9520   3.9666   4.9870

          k = 0.5833-0.2500 0.7500 (   695 PWs)   bands (ev):

    -2.3883   0.0190   3.3496   4.7312

          k = 0.4167-0.0833 0.5833 (   692 PWs)   bands (ev):

    -3.1893   1.1927   3.2689   5.2703

          k = 0.2500 0.0833 0.4167 (   692 PWs)   bands (ev):

    -4.3584   2.9680   4.7218   6.0129

          k =-0.0833 0.7500 0.0833 (   690 PWs)   bands (ev):

    -2.8595   1.1258   3.9109   4.2957

          k = 0.7500-0.0833 0.9167 (   695 PWs)   bands (ev):

    -1.5610  -0.3035   2.9728   3.8371

          k = 0.5833 0.0833 0.7500 (   698 PWs)   bands (ev):

    -1.9377   0.0094   2.4587   4.4313

          k = 0.4167 0.2500 0.5833 (   694 PWs)   bands (ev):

    -3.0574   0.3861   4.3387   5.3823

          k =-0.0833-0.9167 0.0833 (   698 PWs)   bands (ev):

    -1.6715  -0.3180   3.6181   4.0661

          k =-0.2500-0.7500-0.0833 (   694 PWs)   bands (ev):

    -2.6715   0.8772   3.3425   4.2031

          k =-0.0833-0.5833 0.0833 (   692 PWs)   bands (ev):

    -3.8452   2.5654   4.5111   4.7467

          k =-0.2500 0.2500 0.2500 (   691 PWs)   bands (ev):

    -4.6127   2.9623   6.2386   6.2386

          k =-0.4167 0.4167 0.0833 (   688 PWs)   bands (ev):

    -3.8802   2.0268   3.9300   6.0652

          k = 0.4167-0.4167 0.9167 (   690 PWs)   bands (ev):

    -2.5949   0.5205   2.7166   5.2058

          k = 0.2500-0.2500 0.7500 (   697 PWs)   bands (ev):

    -2.5436   0.4379   3.2527   4.6797

          k =-0.2500 0.5833 0.2500 (   694 PWs)   bands (ev):

    -3.4202   1.1480   4.4802   5.0818

          k = 0.5833-0.2500 1.0833 (   695 PWs)   bands (ev):

    -2.3323   0.4385   2.8185   4.1898

          k = 0.4167-0.0833 0.9167 (   700 PWs)   bands (ev):

    -1.4294  -0.3117   2.6083   3.4542

          k =-0.2500-1.0833 0.2500 (   699 PWs)   bands (ev):

    -1.6535  -0.2379   2.4722   4.4706

          k =-0.4167 0.4167 0.4167 (   685 PWs)   bands (ev):

    -3.3103   0.2480   5.8331   5.8331

          k = 0.4167-0.4167 1.2500 (   694 PWs)   bands (ev):

    -2.6458  -0.0523   3.8744   5.3461

     highest occupied level (ev):     6.8940

!    total energy              =     -93.44458147 Ry

     total all-electron energy =     -1160.136311 Ry
     estimated scf accuracy    <       0.00000072 Ry

     The total energy is the sum of the following terms:
     one-electron contribution =       6.36743578 Ry
     hartree contribution      =       1.03236252 Ry
     xc contribution           =     -12.40595799 Ry
     ewald contribution        =     -17.23775378 Ry
     one-center paw contrib.   =     -71.20066801 Ry

     convergence has been achieved in   5 iterations

     Writing output data file ././silicon.save/

     init_run     :      0.59s CPU      0.47s WALL (       1 calls)
     electrons    :      3.20s CPU      2.29s WALL (       1 calls)

     Called by init_run:
     wfcinit      :      0.16s CPU      0.08s WALL (       1 calls)
     potinit      :      0.21s CPU      0.21s WALL (       1 calls)
     hinit0       :      0.21s CPU      0.16s WALL (       1 calls)

     Called by electrons:
     c_bands      :      1.34s CPU      0.85s WALL (       6 calls)
     sum_band     :      0.40s CPU      0.23s WALL (       6 calls)
     v_of_rho     :      0.09s CPU      0.05s WALL (       6 calls)
     newd         :      0.05s CPU      0.04s WALL (       6 calls)
     PAW_pot      :      1.50s CPU      1.31s WALL (       6 calls)
     mix_rho      :      0.00s CPU      0.00s WALL (       6 calls)

     Called by c_bands:
     init_us_2    :      0.12s CPU      0.07s WALL (     364 calls)
     cegterg      :      0.94s CPU      0.57s WALL (     168 calls)

     Called by *egterg:
     cdiaghg      :      0.02s CPU      0.01s WALL (     514 calls)
     h_psi        :      0.96s CPU      0.57s WALL (     570 calls)
     s_psi        :      0.03s CPU      0.01s WALL (     570 calls)
     g_psi        :      0.01s CPU      0.01s WALL (     374 calls)

     Called by h_psi:
     h_psi:calbec :      0.04s CPU      0.03s WALL (     570 calls)
     vloc_psi     :      0.88s CPU      0.52s WALL (     570 calls)
     add_vuspsi   :      0.03s CPU      0.02s WALL (     570 calls)

     General routines
     calbec       :      0.06s CPU      0.04s WALL (     738 calls)
     fft          :      0.01s CPU      0.01s WALL (      67 calls)
     ffts         :      0.00s CPU      0.00s WALL (       6 calls)
     fftw         :      0.68s CPU      0.40s WALL (    4910 calls)

     Parallel routines

     PWSCF        :      3.87s CPU      2.83s WALL


   This run was terminated on:  13:42:41  21May2024            

=------------------------------------------------------------------------------=
   JOB DONE.
=------------------------------------------------------------------------------=
