
     Program PWSCF v.6.7MaX starts on 21May2024 at 13:43:12 

     This program is part of the open-source Quantum ESPRESSO suite
     for quantum simulation of materials; please cite
         "P. Giannozzi et al., J. Phys.:Condens. Matter 21 395502 (2009);
         "P. Giannozzi et al., J. Phys.:Condens. Matter 29 465901 (2017);
          URL http://www.quantum-espresso.org", 
     in publications or presentations arising from this work. More details at
     http://www.quantum-espresso.org/quote

     Parallel version (MPI), running on     1 processors

     MPI processes distributed on     1 nodes
     Waiting for input...
     Reading input from standard input

     Current dimensions of program PWSCF are:
     Max number of different atomic species (ntypx) = 10
     Max number of k-points (npk) =  40000
     Max angular momentum in pseudopotentials (lmaxx) =  3
     file Si.UPF: wavefunction(s)  3S 3P renormalized

     Subspace diagonalization in iterative solution of the eigenvalue problem:
     a serial algorithm will be used


     G-vector sticks info
     --------------------
     sticks:   dense  smooth     PW     G-vecs:    dense   smooth      PW
     Sum         451     451    151                 6375     6375    1243



     bravais-lattice index     =            2
     lattice parameter (alat)  =      10.5000  a.u.
     unit-cell volume          =     289.4062 (a.u.)^3
     number of atoms/cell      =            2
     number of atomic types    =            1
     number of electrons       =         8.00
     number of Kohn-Sham states=            4
     kinetic-energy cutoff     =      30.0000  Ry
     charge density cutoff     =     120.0000  Ry
     scf convergence threshold =      1.0E-06
     mixing beta               =       0.6000
     number of iterations used =            8  plain     mixing
     Exchange-correlation= SLA  PW   PBX  PBC
                           (   1   4   3   4   0   0   0)

     celldm(1)=  10.500000  celldm(2)=   0.000000  celldm(3)=   0.000000
     celldm(4)=   0.000000  celldm(5)=   0.000000  celldm(6)=   0.000000

     crystal axes: (cart. coord. in units of alat)
               a(1) = (  -0.500000   0.000000   0.500000 )  
               a(2) = (   0.000000   0.500000   0.500000 )  
               a(3) = (  -0.500000   0.500000   0.000000 )  

     reciprocal axes: (cart. coord. in units 2 pi/alat)
               b(1) = ( -1.000000 -1.000000  1.000000 )  
               b(2) = (  1.000000  1.000000  1.000000 )  
               b(3) = ( -1.000000  1.000000 -1.000000 )  


     PseudoPot. # 1 for Si read from file:
     ././Si.UPF
     MD5 check sum: c39c59da582df4a0d9f10159256ea34e
     Pseudo is Projector augmented-wave + core cor, Zval =  4.0
     Generated using &quot;atomic&quot; code by A. Dal Corso  v.6.3
     Shape of augmentation charge: PSQ
     Using radial grid of 1141 points,  6 beta functions with: 
                l(1) =   0
                l(2) =   0
                l(3) =   1
                l(4) =   1
                l(5) =   2
                l(6) =   2
     Q(r) pseudized with 0 coefficients 


     atomic species   valence    mass     pseudopotential
        Si             4.00    28.08600     Si( 1.00)

     48 Sym. Ops., with inversion, found (24 have fractional translation)



   Cartesian axes

     site n.     atom                  positions (alat units)
         1           Si  tau(   1) = (   0.0000000   0.0000000   0.0000000  )
         2           Si  tau(   2) = (   0.2500000   0.2500000   0.2500000  )

     number of k points=    28
                       cart. coord. in units 2pi/alat
        k(    1) = (  -0.0833333   0.0833333   0.0833333), wk =   0.0185185
        k(    2) = (  -0.2500000   0.2500000  -0.0833333), wk =   0.0555556
        k(    3) = (  -0.4166667   0.4166667  -0.2500000), wk =   0.0555556
        k(    4) = (   0.4166667  -0.4166667   0.5833333), wk =   0.0555556
        k(    5) = (   0.2500000  -0.2500000   0.4166667), wk =   0.0555556
        k(    6) = (   0.0833333  -0.0833333   0.2500000), wk =   0.0555556
        k(    7) = (  -0.0833333   0.4166667   0.0833333), wk =   0.0555556
        k(    8) = (  -0.2500000   0.5833333  -0.0833333), wk =   0.1111111
        k(    9) = (   0.5833333  -0.2500000   0.7500000), wk =   0.1111111
        k(   10) = (   0.4166667  -0.0833333   0.5833333), wk =   0.1111111
        k(   11) = (   0.2500000   0.0833333   0.4166667), wk =   0.1111111
        k(   12) = (  -0.0833333   0.7500000   0.0833333), wk =   0.0555556
        k(   13) = (   0.7500000  -0.0833333   0.9166667), wk =   0.1111111
        k(   14) = (   0.5833333   0.0833333   0.7500000), wk =   0.1111111
        k(   15) = (   0.4166667   0.2500000   0.5833333), wk =   0.1111111
        k(   16) = (  -0.0833333  -0.9166667   0.0833333), wk =   0.0555556
        k(   17) = (  -0.2500000  -0.7500000  -0.0833333), wk =   0.1111111
        k(   18) = (  -0.0833333  -0.5833333   0.0833333), wk =   0.0555556
        k(   19) = (  -0.2500000   0.2500000   0.2500000), wk =   0.0185185
        k(   20) = (  -0.4166667   0.4166667   0.0833333), wk =   0.0555556
        k(   21) = (   0.4166667  -0.4166667   0.9166667), wk =   0.0555556
        k(   22) = (   0.2500000  -0.2500000   0.7500000), wk =   0.0555556
        k(   23) = (  -0.2500000   0.5833333   0.2500000), wk =   0.0555556
        k(   24) = (   0.5833333  -0.2500000   1.0833333), wk =   0.1111111
        k(   25) = (   0.4166667  -0.0833333   0.9166667), wk =   0.1111111
        k(   26) = (  -0.2500000  -1.0833333   0.2500000), wk =   0.0555556
        k(   27) = (  -0.4166667   0.4166667   0.4166667), wk =   0.0185185
        k(   28) = (   0.4166667  -0.4166667   1.2500000), wk =   0.0555556

     Dense  grid:     6375 G-vectors     FFT dimensions: (  32,  32,  32)

     Estimated max dynamical RAM per process >      25.93 MB

     Check: negative core charge=   -0.000004

     Initial potential from superposition of free atoms

     starting charge    7.99888, renormalised to    8.00000
     Starting wfcs are    8 randomized atomic wfcs
     Checking if some PAW data can be deallocated... 

     total cpu time spent up to now is        0.5 secs

     Self-consistent Calculation

     iteration #  1     ecut=    30.00 Ry     beta= 0.60
     Davidson diagonalization with overlap
     ethr =  1.00E-02,  avg # of iterations =  2.0

     Threshold (ethr) on eigenvalues was too large:
     Diagonalizing with lowered threshold

     Davidson diagonalization with overlap
     ethr =  5.53E-04,  avg # of iterations =  1.7

     total cpu time spent up to now is        1.3 secs

     total energy              =     -93.45027933 Ry
     estimated scf accuracy    <       0.04812589 Ry

     iteration #  2     ecut=    30.00 Ry     beta= 0.60
     Davidson diagonalization with overlap
     ethr =  6.02E-04,  avg # of iterations =  1.0

     total cpu time spent up to now is        1.7 secs

     total energy              =     -93.45079007 Ry
     estimated scf accuracy    <       0.00579318 Ry

     iteration #  3     ecut=    30.00 Ry     beta= 0.60
     Davidson diagonalization with overlap
     ethr =  7.24E-05,  avg # of iterations =  2.1

     total cpu time spent up to now is        2.1 secs

     total energy              =     -93.45154809 Ry
     estimated scf accuracy    <       0.00011981 Ry

     iteration #  4     ecut=    30.00 Ry     beta= 0.60
     Davidson diagonalization with overlap
     ethr =  1.50E-06,  avg # of iterations =  4.4

     total cpu time spent up to now is        2.6 secs

     total energy              =     -93.45165326 Ry
     estimated scf accuracy    <       0.00001219 Ry

     iteration #  5     ecut=    30.00 Ry     beta= 0.60
     Davidson diagonalization with overlap
     ethr =  1.52E-07,  avg # of iterations =  4.1

     total cpu time spent up to now is        3.1 secs

     End of self-consistent calculation

          k =-0.0833 0.0833 0.0833 (   815 PWs)   bands (ev):

    -5.9101   4.6423   5.3751   5.3751

          k =-0.2500 0.2500-0.0833 (   812 PWs)   bands (ev):

    -5.4602   2.6131   4.2118   5.1681

          k =-0.4167 0.4167-0.2500 (   808 PWs)   bands (ev):

    -4.4362  -0.0019   3.7517   4.5645

          k = 0.4167-0.4167 0.5833 (   801 PWs)   bands (ev):

    -3.7954  -1.0673   3.8032   4.2083

          k = 0.2500-0.2500 0.4167 (   800 PWs)   bands (ev):

    -4.8205   0.7966   4.2731   4.2757

          k = 0.0833-0.0833 0.2500 (   811 PWs)   bands (ev):

    -5.6828   3.5794   4.7728   4.9244

          k =-0.0833 0.4167 0.0833 (   816 PWs)   bands (ev):

    -5.2321   2.3856   4.0531   4.0845

          k =-0.2500 0.5833-0.0833 (   811 PWs)   bands (ev):

    -4.3752   0.6253   2.8232   3.7147

          k = 0.5833-0.2500 0.7500 (   803 PWs)   bands (ev):

    -3.3423  -0.9969   2.2364   3.5066

          k = 0.4167-0.0833 0.5833 (   803 PWs)   bands (ev):

    -4.0081  -0.0202   2.2193   3.9572

          k = 0.2500 0.0833 0.4167 (   813 PWs)   bands (ev):

    -5.0204   1.6130   3.4776   4.5751

          k =-0.0833 0.7500 0.0833 (   800 PWs)   bands (ev):

    -3.7016  -0.1945   2.7985   3.1089

          k = 0.7500-0.0833 0.9167 (   794 PWs)   bands (ev):

    -2.5811  -1.4672   2.0226   2.7369

          k = 0.5833 0.0833 0.7500 (   803 PWs)   bands (ev):

    -2.9452  -1.1218   1.5644   3.2477

          k = 0.4167 0.2500 0.5833 (   806 PWs)   bands (ev):

    -3.9097  -0.6188   3.0714   4.0458

          k =-0.0833-0.9167 0.0833 (   796 PWs)   bands (ev):

    -2.6603  -1.4716   2.5457   2.9042

          k =-0.2500-0.7500-0.0833 (   797 PWs)   bands (ev):

    -3.5470  -0.4003   2.3128   3.0581

          k =-0.0833-0.5833 0.0833 (   814 PWs)   bands (ev):

    -4.5668   1.1135   3.3056   3.5099

          k =-0.2500 0.2500 0.2500 (   812 PWs)   bands (ev):

    -5.2443   1.6961   4.7922   4.7922

          k =-0.4167 0.4167 0.0833 (   805 PWs)   bands (ev):

    -4.6055   0.7655   2.7875   4.6271

          k = 0.4167-0.4167 0.9167 (   798 PWs)   bands (ev):

    -3.5047  -0.6249   1.7567   3.8914

          k = 0.2500-0.2500 0.7500 (   803 PWs)   bands (ev):

    -3.4523  -0.7016   2.1955   3.4404

          k =-0.2500 0.5833 0.2500 (   800 PWs)   bands (ev):

    -4.2084   0.0097   3.1944   3.7927

          k = 0.5833-0.2500 1.0833 (   803 PWs)   bands (ev):

    -3.2696  -0.7563   1.8546   3.0624

          k = 0.4167-0.0833 0.9167 (   795 PWs)   bands (ev):

    -2.4907  -1.4747   1.7180   2.4427

          k =-0.2500-1.0833 0.2500 (   800 PWs)   bands (ev):

    -2.6910  -1.3690   1.5990   3.2565

          k =-0.4167 0.4167 0.4167 (   799 PWs)   bands (ev):

    -4.1341  -0.6913   4.4180   4.4180

          k = 0.4167-0.4167 1.2500 (   802 PWs)   bands (ev):

    -3.5718  -0.9977   2.6739   4.0092

     highest occupied level (ev):     5.3751

!    total energy              =     -93.45165923 Ry

     total all-electron energy =     -1160.143389 Ry
     estimated scf accuracy    <       0.00000046 Ry

     The total energy is the sum of the following terms:
     one-electron contribution =       5.20650234 Ry
     hartree contribution      =       1.16178699 Ry
     xc contribution           =     -12.22678646 Ry
     ewald contribution        =     -16.41690838 Ry
     one-center paw contrib.   =     -71.17625373 Ry

     convergence has been achieved in   5 iterations

     Writing output data file ././silicon.save/

     init_run     :      0.56s CPU      0.48s WALL (       1 calls)
     electrons    :      3.56s CPU      2.55s WALL (       1 calls)

     Called by init_run:
     wfcinit      :      0.15s CPU      0.08s WALL (       1 calls)
     potinit      :      0.21s CPU      0.22s WALL (       1 calls)
     hinit0       :      0.19s CPU      0.16s WALL (       1 calls)

     Called by electrons:
     c_bands      :      1.63s CPU      1.06s WALL (       6 calls)
     sum_band     :      0.45s CPU      0.27s WALL (       6 calls)
     v_of_rho     :      0.09s CPU      0.06s WALL (       6 calls)
     newd         :      0.05s CPU      0.04s WALL (       6 calls)
     PAW_pot      :      1.54s CPU      1.34s WALL (       6 calls)
     mix_rho      :      0.00s CPU      0.00s WALL (       6 calls)

     Called by c_bands:
     init_us_2    :      0.13s CPU      0.09s WALL (     364 calls)
     cegterg      :      1.11s CPU      0.71s WALL (     168 calls)

     Called by *egterg:
     cdiaghg      :      0.02s CPU      0.01s WALL (     567 calls)
     h_psi        :      1.09s CPU      0.69s WALL (     623 calls)
     s_psi        :      0.03s CPU      0.02s WALL (     623 calls)
     g_psi        :      0.01s CPU      0.01s WALL (     427 calls)

     Called by h_psi:
     h_psi:calbec :      0.08s CPU      0.09s WALL (     623 calls)
     vloc_psi     :      0.97s CPU      0.57s WALL (     623 calls)
     add_vuspsi   :      0.04s CPU      0.02s WALL (     623 calls)

     General routines
     calbec       :      0.10s CPU      0.11s WALL (     791 calls)
     fft          :      0.01s CPU      0.01s WALL (      67 calls)
     ffts         :      0.00s CPU      0.00s WALL (       6 calls)
     fftw         :      0.74s CPU      0.45s WALL (    5006 calls)

     Parallel routines

     PWSCF        :      4.21s CPU      3.11s WALL


   This run was terminated on:  13:43:15  21May2024            

=------------------------------------------------------------------------------=
   JOB DONE.
=------------------------------------------------------------------------------=
