
     Program PWSCF v.6.7MaX starts on 21May2024 at 13:43: 5 

     This program is part of the open-source Quantum ESPRESSO suite
     for quantum simulation of materials; please cite
         "P. Giannozzi et al., J. Phys.:Condens. Matter 21 395502 (2009);
         "P. Giannozzi et al., J. Phys.:Condens. Matter 29 465901 (2017);
          URL http://www.quantum-espresso.org", 
     in publications or presentations arising from this work. More details at
     http://www.quantum-espresso.org/quote

     Parallel version (MPI), running on     1 processors

     MPI processes distributed on     1 nodes
     Waiting for input...
     Reading input from standard input

     Current dimensions of program PWSCF are:
     Max number of different atomic species (ntypx) = 10
     Max number of k-points (npk) =  40000
     Max angular momentum in pseudopotentials (lmaxx) =  3
     file Si.UPF: wavefunction(s)  3S 3P renormalized

     Subspace diagonalization in iterative solution of the eigenvalue problem:
     a serial algorithm will be used


     G-vector sticks info
     --------------------
     sticks:   dense  smooth     PW     G-vecs:    dense   smooth      PW
     Sum         439     439    151                 6231     6231    1243



     bravais-lattice index     =            2
     lattice parameter (alat)  =      10.4000  a.u.
     unit-cell volume          =     281.2160 (a.u.)^3
     number of atoms/cell      =            2
     number of atomic types    =            1
     number of electrons       =         8.00
     number of Kohn-Sham states=            4
     kinetic-energy cutoff     =      30.0000  Ry
     charge density cutoff     =     120.0000  Ry
     scf convergence threshold =      1.0E-06
     mixing beta               =       0.6000
     number of iterations used =            8  plain     mixing
     Exchange-correlation= SLA  PW   PBX  PBC
                           (   1   4   3   4   0   0   0)

     celldm(1)=  10.400000  celldm(2)=   0.000000  celldm(3)=   0.000000
     celldm(4)=   0.000000  celldm(5)=   0.000000  celldm(6)=   0.000000

     crystal axes: (cart. coord. in units of alat)
               a(1) = (  -0.500000   0.000000   0.500000 )  
               a(2) = (   0.000000   0.500000   0.500000 )  
               a(3) = (  -0.500000   0.500000   0.000000 )  

     reciprocal axes: (cart. coord. in units 2 pi/alat)
               b(1) = ( -1.000000 -1.000000  1.000000 )  
               b(2) = (  1.000000  1.000000  1.000000 )  
               b(3) = ( -1.000000  1.000000 -1.000000 )  


     PseudoPot. # 1 for Si read from file:
     ././Si.UPF
     MD5 check sum: c39c59da582df4a0d9f10159256ea34e
     Pseudo is Projector augmented-wave + core cor, Zval =  4.0
     Generated using &quot;atomic&quot; code by A. Dal Corso  v.6.3
     Shape of augmentation charge: PSQ
     Using radial grid of 1141 points,  6 beta functions with: 
                l(1) =   0
                l(2) =   0
                l(3) =   1
                l(4) =   1
                l(5) =   2
                l(6) =   2
     Q(r) pseudized with 0 coefficients 


     atomic species   valence    mass     pseudopotential
        Si             4.00    28.08600     Si( 1.00)

     48 Sym. Ops., with inversion, found (24 have fractional translation)



   Cartesian axes

     site n.     atom                  positions (alat units)
         1           Si  tau(   1) = (   0.0000000   0.0000000   0.0000000  )
         2           Si  tau(   2) = (   0.2500000   0.2500000   0.2500000  )

     number of k points=    28
                       cart. coord. in units 2pi/alat
        k(    1) = (  -0.0833333   0.0833333   0.0833333), wk =   0.0185185
        k(    2) = (  -0.2500000   0.2500000  -0.0833333), wk =   0.0555556
        k(    3) = (  -0.4166667   0.4166667  -0.2500000), wk =   0.0555556
        k(    4) = (   0.4166667  -0.4166667   0.5833333), wk =   0.0555556
        k(    5) = (   0.2500000  -0.2500000   0.4166667), wk =   0.0555556
        k(    6) = (   0.0833333  -0.0833333   0.2500000), wk =   0.0555556
        k(    7) = (  -0.0833333   0.4166667   0.0833333), wk =   0.0555556
        k(    8) = (  -0.2500000   0.5833333  -0.0833333), wk =   0.1111111
        k(    9) = (   0.5833333  -0.2500000   0.7500000), wk =   0.1111111
        k(   10) = (   0.4166667  -0.0833333   0.5833333), wk =   0.1111111
        k(   11) = (   0.2500000   0.0833333   0.4166667), wk =   0.1111111
        k(   12) = (  -0.0833333   0.7500000   0.0833333), wk =   0.0555556
        k(   13) = (   0.7500000  -0.0833333   0.9166667), wk =   0.1111111
        k(   14) = (   0.5833333   0.0833333   0.7500000), wk =   0.1111111
        k(   15) = (   0.4166667   0.2500000   0.5833333), wk =   0.1111111
        k(   16) = (  -0.0833333  -0.9166667   0.0833333), wk =   0.0555556
        k(   17) = (  -0.2500000  -0.7500000  -0.0833333), wk =   0.1111111
        k(   18) = (  -0.0833333  -0.5833333   0.0833333), wk =   0.0555556
        k(   19) = (  -0.2500000   0.2500000   0.2500000), wk =   0.0185185
        k(   20) = (  -0.4166667   0.4166667   0.0833333), wk =   0.0555556
        k(   21) = (   0.4166667  -0.4166667   0.9166667), wk =   0.0555556
        k(   22) = (   0.2500000  -0.2500000   0.7500000), wk =   0.0555556
        k(   23) = (  -0.2500000   0.5833333   0.2500000), wk =   0.0555556
        k(   24) = (   0.5833333  -0.2500000   1.0833333), wk =   0.1111111
        k(   25) = (   0.4166667  -0.0833333   0.9166667), wk =   0.1111111
        k(   26) = (  -0.2500000  -1.0833333   0.2500000), wk =   0.0555556
        k(   27) = (  -0.4166667   0.4166667   0.4166667), wk =   0.0185185
        k(   28) = (   0.4166667  -0.4166667   1.2500000), wk =   0.0555556

     Dense  grid:     6231 G-vectors     FFT dimensions: (  32,  32,  32)

     Estimated max dynamical RAM per process >      25.40 MB

     Check: negative core charge=   -0.000003

     Initial potential from superposition of free atoms

     starting charge    7.99888, renormalised to    8.00000
     Starting wfcs are    8 randomized atomic wfcs
     Checking if some PAW data can be deallocated... 

     total cpu time spent up to now is        0.5 secs

     Self-consistent Calculation

     iteration #  1     ecut=    30.00 Ry     beta= 0.60
     Davidson diagonalization with overlap
     ethr =  1.00E-02,  avg # of iterations =  2.0

     Threshold (ethr) on eigenvalues was too large:
     Diagonalizing with lowered threshold

     Davidson diagonalization with overlap
     ethr =  5.81E-04,  avg # of iterations =  1.6

     total cpu time spent up to now is        1.2 secs

     total energy              =     -93.45163121 Ry
     estimated scf accuracy    <       0.05051778 Ry

     iteration #  2     ecut=    30.00 Ry     beta= 0.60
     Davidson diagonalization with overlap
     ethr =  6.31E-04,  avg # of iterations =  1.0

     total cpu time spent up to now is        1.6 secs

     total energy              =     -93.45222634 Ry
     estimated scf accuracy    <       0.00592663 Ry

     iteration #  3     ecut=    30.00 Ry     beta= 0.60
     Davidson diagonalization with overlap
     ethr =  7.41E-05,  avg # of iterations =  2.0

     total cpu time spent up to now is        2.0 secs

     total energy              =     -93.45303843 Ry
     estimated scf accuracy    <       0.00012531 Ry

     iteration #  4     ecut=    30.00 Ry     beta= 0.60
     Davidson diagonalization with overlap
     ethr =  1.57E-06,  avg # of iterations =  4.6

     total cpu time spent up to now is        2.5 secs

     total energy              =     -93.45315408 Ry
     estimated scf accuracy    <       0.00000924 Ry

     iteration #  5     ecut=    30.00 Ry     beta= 0.60
     Davidson diagonalization with overlap
     ethr =  1.15E-07,  avg # of iterations =  4.3

     total cpu time spent up to now is        3.0 secs

     End of self-consistent calculation

          k =-0.0833 0.0833 0.0833 (   785 PWs)   bands (ev):

    -5.8108   4.9330   5.6567   5.6567

          k =-0.2500 0.2500-0.0833 (   792 PWs)   bands (ev):

    -5.3492   2.8810   4.4604   5.4482

          k =-0.4167 0.4167-0.2500 (   783 PWs)   bands (ev):

    -4.2953   0.1999   3.9987   4.8295

          k = 0.4167-0.4167 0.5833 (   785 PWs)   bands (ev):

    -3.6294  -0.9004   4.0570   4.4623

          k = 0.2500-0.2500 0.4167 (   782 PWs)   bands (ev):

    -4.6916   1.0199   4.5248   4.5414

          k = 0.0833-0.0833 0.2500 (   787 PWs)   bands (ev):

    -5.5777   3.8681   5.0344   5.2018

          k =-0.0833 0.4167 0.0833 (   791 PWs)   bands (ev):

    -5.1154   2.6718   4.3030   4.3274

          k =-0.2500 0.5833-0.0833 (   781 PWs)   bands (ev):

    -4.2351   0.8757   3.0334   3.9500

          k = 0.5833-0.2500 0.7500 (   781 PWs)   bands (ev):

    -3.1656  -0.8036   2.4398   3.7333

          k = 0.4167-0.0833 0.5833 (   781 PWs)   bands (ev):

    -3.8559   0.2090   2.4118   4.2000

          k = 0.2500 0.0833 0.4167 (   786 PWs)   bands (ev):

    -4.8977   1.8700   3.7070   4.8406

          k =-0.0833 0.7500 0.0833 (   779 PWs)   bands (ev):

    -3.5448   0.0523   3.0041   3.3279

          k = 0.7500-0.0833 0.9167 (   775 PWs)   bands (ev):

    -2.3912  -1.2503   2.1986   2.9403

          k = 0.5833 0.0833 0.7500 (   777 PWs)   bands (ev):

    -2.7584  -0.9090   1.7289   3.4667

          k = 0.4167 0.2500 0.5833 (   783 PWs)   bands (ev):

    -3.7516  -0.4282   3.3044   4.2928

          k =-0.0833-0.9167 0.0833 (   774 PWs)   bands (ev):

    -2.4759  -1.2562   2.7438   3.1185

          k =-0.2500-0.7500-0.0833 (   775 PWs)   bands (ev):

    -3.3841  -0.1613   2.5027   3.2702

          k =-0.0833-0.5833 0.0833 (   788 PWs)   bands (ev):

    -4.4328   1.3863   3.5280   3.7384

          k =-0.2500 0.2500 0.2500 (   790 PWs)   bands (ev):

    -5.1274   1.9358   5.0598   5.0598

          k =-0.4167 0.4167 0.0833 (   789 PWs)   bands (ev):

    -4.4709   1.0043   2.9975   4.8928

          k = 0.4167-0.4167 0.9167 (   783 PWs)   bands (ev):

    -3.3358  -0.4086   1.9326   4.1342

          k = 0.2500-0.2500 0.7500 (   781 PWs)   bands (ev):

    -3.2835  -0.4864   2.3893   3.6693

          k =-0.2500 0.5833 0.2500 (   783 PWs)   bands (ev):

    -4.0620   0.2253   3.4304   4.0309

          k = 0.5833-0.2500 1.0833 (   774 PWs)   bands (ev):

    -3.0955  -0.5319   2.0315   3.2715

          k = 0.4167-0.0833 0.9167 (   769 PWs)   bands (ev):

    -2.2937  -1.2579   1.8828   2.6304

          k =-0.2500-1.0833 0.2500 (   773 PWs)   bands (ev):

    -2.4986  -1.1572   1.7605   3.4806

          k =-0.4167 0.4167 0.4167 (   772 PWs)   bands (ev):

    -3.9813  -0.5137   4.6791   4.6791

          k = 0.4167-0.4167 1.2500 (   778 PWs)   bands (ev):

    -3.4005  -0.8177   2.8943   4.2561

     highest occupied level (ev):     5.6567

!    total energy              =     -93.45316005 Ry

     total all-electron energy =     -1160.144890 Ry
     estimated scf accuracy    <       0.00000037 Ry

     The total energy is the sum of the following terms:
     one-electron contribution =       5.42660216 Ry
     hartree contribution      =       1.13577385 Ry
     xc contribution           =     -12.26036970 Ry
     ewald contribution        =     -16.57476325 Ry
     one-center paw contrib.   =     -71.18040311 Ry

     convergence has been achieved in   5 iterations

     Writing output data file ././silicon.save/

     init_run     :      0.58s CPU      0.49s WALL (       1 calls)
     electrons    :      3.60s CPU      2.47s WALL (       1 calls)

     Called by init_run:
     wfcinit      :      0.12s CPU      0.09s WALL (       1 calls)
     potinit      :      0.21s CPU      0.22s WALL (       1 calls)
     hinit0       :      0.22s CPU      0.16s WALL (       1 calls)

     Called by electrons:
     c_bands      :      1.63s CPU      0.99s WALL (       6 calls)
     sum_band     :      0.49s CPU      0.25s WALL (       6 calls)
     v_of_rho     :      0.08s CPU      0.06s WALL (       6 calls)
     newd         :      0.07s CPU      0.05s WALL (       6 calls)
     PAW_pot      :      1.55s CPU      1.34s WALL (       6 calls)
     mix_rho      :      0.00s CPU      0.00s WALL (       6 calls)

     Called by c_bands:
     init_us_2    :      0.13s CPU      0.08s WALL (     364 calls)
     cegterg      :      1.15s CPU      0.66s WALL (     168 calls)

     Called by *egterg:
     cdiaghg      :      0.02s CPU      0.01s WALL (     573 calls)
     h_psi        :      1.11s CPU      0.65s WALL (     629 calls)
     s_psi        :      0.03s CPU      0.02s WALL (     629 calls)
     g_psi        :      0.01s CPU      0.01s WALL (     433 calls)

     Called by h_psi:
     h_psi:calbec :      0.05s CPU      0.04s WALL (     629 calls)
     vloc_psi     :      1.01s CPU      0.58s WALL (     629 calls)
     add_vuspsi   :      0.04s CPU      0.02s WALL (     629 calls)

     General routines
     calbec       :      0.06s CPU      0.05s WALL (     797 calls)
     fft          :      0.01s CPU      0.01s WALL (      67 calls)
     ffts         :      0.00s CPU      0.00s WALL (       6 calls)
     fftw         :      0.78s CPU      0.45s WALL (    5078 calls)

     Parallel routines

     PWSCF        :      4.25s CPU      3.04s WALL


   This run was terminated on:  13:43: 8  21May2024            

=------------------------------------------------------------------------------=
   JOB DONE.
=------------------------------------------------------------------------------=
