
     Program PWSCF v.6.7MaX starts on 21May2024 at 13:42:45 

     This program is part of the open-source Quantum ESPRESSO suite
     for quantum simulation of materials; please cite
         "P. Giannozzi et al., J. Phys.:Condens. Matter 21 395502 (2009);
         "P. Giannozzi et al., J. Phys.:Condens. Matter 29 465901 (2017);
          URL http://www.quantum-espresso.org", 
     in publications or presentations arising from this work. More details at
     http://www.quantum-espresso.org/quote

     Parallel version (MPI), running on     1 processors

     MPI processes distributed on     1 nodes
     Waiting for input...
     Reading input from standard input

     Current dimensions of program PWSCF are:
     Max number of different atomic species (ntypx) = 10
     Max number of k-points (npk) =  40000
     Max angular momentum in pseudopotentials (lmaxx) =  3
     file Si.UPF: wavefunction(s)  3S 3P renormalized

     Subspace diagonalization in iterative solution of the eigenvalue problem:
     a serial algorithm will be used


     G-vector sticks info
     --------------------
     sticks:   dense  smooth     PW     G-vecs:    dense   smooth      PW
     Sum         421     421    139                 5769     5769    1067



     bravais-lattice index     =            2
     lattice parameter (alat)  =      10.1000  a.u.
     unit-cell volume          =     257.5752 (a.u.)^3
     number of atoms/cell      =            2
     number of atomic types    =            1
     number of electrons       =         8.00
     number of Kohn-Sham states=            4
     kinetic-energy cutoff     =      30.0000  Ry
     charge density cutoff     =     120.0000  Ry
     scf convergence threshold =      1.0E-06
     mixing beta               =       0.6000
     number of iterations used =            8  plain     mixing
     Exchange-correlation= SLA  PW   PBX  PBC
                           (   1   4   3   4   0   0   0)

     celldm(1)=  10.100000  celldm(2)=   0.000000  celldm(3)=   0.000000
     celldm(4)=   0.000000  celldm(5)=   0.000000  celldm(6)=   0.000000

     crystal axes: (cart. coord. in units of alat)
               a(1) = (  -0.500000   0.000000   0.500000 )  
               a(2) = (   0.000000   0.500000   0.500000 )  
               a(3) = (  -0.500000   0.500000   0.000000 )  

     reciprocal axes: (cart. coord. in units 2 pi/alat)
               b(1) = ( -1.000000 -1.000000  1.000000 )  
               b(2) = (  1.000000  1.000000  1.000000 )  
               b(3) = ( -1.000000  1.000000 -1.000000 )  


     PseudoPot. # 1 for Si read from file:
     ././Si.UPF
     MD5 check sum: c39c59da582df4a0d9f10159256ea34e
     Pseudo is Projector augmented-wave + core cor, Zval =  4.0
     Generated using &quot;atomic&quot; code by A. Dal Corso  v.6.3
     Shape of augmentation charge: PSQ
     Using radial grid of 1141 points,  6 beta functions with: 
                l(1) =   0
                l(2) =   0
                l(3) =   1
                l(4) =   1
                l(5) =   2
                l(6) =   2
     Q(r) pseudized with 0 coefficients 


     atomic species   valence    mass     pseudopotential
        Si             4.00    28.08600     Si( 1.00)

     48 Sym. Ops., with inversion, found (24 have fractional translation)



   Cartesian axes

     site n.     atom                  positions (alat units)
         1           Si  tau(   1) = (   0.0000000   0.0000000   0.0000000  )
         2           Si  tau(   2) = (   0.2500000   0.2500000   0.2500000  )

     number of k points=    28
                       cart. coord. in units 2pi/alat
        k(    1) = (  -0.0833333   0.0833333   0.0833333), wk =   0.0185185
        k(    2) = (  -0.2500000   0.2500000  -0.0833333), wk =   0.0555556
        k(    3) = (  -0.4166667   0.4166667  -0.2500000), wk =   0.0555556
        k(    4) = (   0.4166667  -0.4166667   0.5833333), wk =   0.0555556
        k(    5) = (   0.2500000  -0.2500000   0.4166667), wk =   0.0555556
        k(    6) = (   0.0833333  -0.0833333   0.2500000), wk =   0.0555556
        k(    7) = (  -0.0833333   0.4166667   0.0833333), wk =   0.0555556
        k(    8) = (  -0.2500000   0.5833333  -0.0833333), wk =   0.1111111
        k(    9) = (   0.5833333  -0.2500000   0.7500000), wk =   0.1111111
        k(   10) = (   0.4166667  -0.0833333   0.5833333), wk =   0.1111111
        k(   11) = (   0.2500000   0.0833333   0.4166667), wk =   0.1111111
        k(   12) = (  -0.0833333   0.7500000   0.0833333), wk =   0.0555556
        k(   13) = (   0.7500000  -0.0833333   0.9166667), wk =   0.1111111
        k(   14) = (   0.5833333   0.0833333   0.7500000), wk =   0.1111111
        k(   15) = (   0.4166667   0.2500000   0.5833333), wk =   0.1111111
        k(   16) = (  -0.0833333  -0.9166667   0.0833333), wk =   0.0555556
        k(   17) = (  -0.2500000  -0.7500000  -0.0833333), wk =   0.1111111
        k(   18) = (  -0.0833333  -0.5833333   0.0833333), wk =   0.0555556
        k(   19) = (  -0.2500000   0.2500000   0.2500000), wk =   0.0185185
        k(   20) = (  -0.4166667   0.4166667   0.0833333), wk =   0.0555556
        k(   21) = (   0.4166667  -0.4166667   0.9166667), wk =   0.0555556
        k(   22) = (   0.2500000  -0.2500000   0.7500000), wk =   0.0555556
        k(   23) = (  -0.2500000   0.5833333   0.2500000), wk =   0.0555556
        k(   24) = (   0.5833333  -0.2500000   1.0833333), wk =   0.1111111
        k(   25) = (   0.4166667  -0.0833333   0.9166667), wk =   0.1111111
        k(   26) = (  -0.2500000  -1.0833333   0.2500000), wk =   0.0555556
        k(   27) = (  -0.4166667   0.4166667   0.4166667), wk =   0.0185185
        k(   28) = (   0.4166667  -0.4166667   1.2500000), wk =   0.0555556

     Dense  grid:     5769 G-vectors     FFT dimensions: (  32,  32,  32)

     Estimated max dynamical RAM per process >      23.74 MB

     Check: negative core charge=   -0.000003

     Initial potential from superposition of free atoms

     starting charge    7.99888, renormalised to    8.00000
     Starting wfcs are    8 randomized atomic wfcs
     Checking if some PAW data can be deallocated... 

     total cpu time spent up to now is        0.6 secs

     Self-consistent Calculation

     iteration #  1     ecut=    30.00 Ry     beta= 0.60
     Davidson diagonalization with overlap
     ethr =  1.00E-02,  avg # of iterations =  2.0

     Threshold (ethr) on eigenvalues was too large:
     Diagonalizing with lowered threshold

     Davidson diagonalization with overlap
     ethr =  6.74E-04,  avg # of iterations =  1.3

     total cpu time spent up to now is        1.1 secs

     total energy              =     -93.44709521 Ry
     estimated scf accuracy    <       0.05836535 Ry

     iteration #  2     ecut=    30.00 Ry     beta= 0.60
     Davidson diagonalization with overlap
     ethr =  7.30E-04,  avg # of iterations =  1.0

     total cpu time spent up to now is        1.5 secs

     total energy              =     -93.44797245 Ry
     estimated scf accuracy    <       0.00635150 Ry

     iteration #  3     ecut=    30.00 Ry     beta= 0.60
     Davidson diagonalization with overlap
     ethr =  7.94E-05,  avg # of iterations =  2.1

     total cpu time spent up to now is        2.0 secs

     total energy              =     -93.44908755 Ry
     estimated scf accuracy    <       0.00017028 Ry

     iteration #  4     ecut=    30.00 Ry     beta= 0.60
     Davidson diagonalization with overlap
     ethr =  2.13E-06,  avg # of iterations =  4.2

     total cpu time spent up to now is        2.4 secs

     total energy              =     -93.44919917 Ry
     estimated scf accuracy    <       0.00002519 Ry

     iteration #  5     ecut=    30.00 Ry     beta= 0.60
     Davidson diagonalization with overlap
     ethr =  3.15E-07,  avg # of iterations =  2.8

     total cpu time spent up to now is        2.8 secs

     End of self-consistent calculation

          k =-0.0833 0.0833 0.0833 (   718 PWs)   bands (ev):

    -5.4881   5.8544   6.5672   6.5672

          k =-0.2500 0.2500-0.0833 (   712 PWs)   bands (ev):

    -4.9895   3.7268   5.2665   6.3562

          k =-0.4167 0.4167-0.2500 (   722 PWs)   bands (ev):

    -3.8401   0.8394   4.8002   5.6899

          k = 0.4167-0.4167 0.5833 (   721 PWs)   bands (ev):

    -3.0909  -0.3735   4.8811   5.2871

          k = 0.2500-0.2500 0.4167 (   720 PWs)   bands (ev):

    -4.2752   1.7268   5.3409   5.4043

          k = 0.0833-0.0833 0.2500 (   705 PWs)   bands (ev):

    -5.2365   4.7765   5.8808   6.1023

          k =-0.0833 0.4167 0.0833 (   706 PWs)   bands (ev):

    -4.7375   3.5762   5.1140   5.1180

          k =-0.2500 0.5833-0.0833 (   714 PWs)   bands (ev):

    -3.7828   1.6712   3.7187   4.7127

          k = 0.5833-0.2500 0.7500 (   715 PWs)   bands (ev):

    -2.5937  -0.1943   3.1069   4.4675

          k = 0.4167-0.0833 0.5833 (   711 PWs)   bands (ev):

    -3.3650   0.9363   3.0408   4.9872

          k = 0.2500 0.0833 0.4167 (   712 PWs)   bands (ev):

    -4.5008   2.6824   4.4528   5.7025

          k =-0.0833 0.7500 0.0833 (   713 PWs)   bands (ev):

    -3.0399   0.8439   3.6710   4.0394

          k = 0.7500-0.0833 0.9167 (   718 PWs)   bands (ev):

    -1.7796  -0.5526   2.7682   3.5999

          k = 0.5833 0.0833 0.7500 (   712 PWs)   bands (ev):

    -2.1545  -0.2306   2.2649   4.1763

          k = 0.4167 0.2500 0.5833 (   715 PWs)   bands (ev):

    -3.2406   0.1742   4.0642   5.0941

          k =-0.0833-0.9167 0.0833 (   714 PWs)   bands (ev):

    -1.8830  -0.5646   3.3867   3.8150

          k =-0.2500-0.7500-0.0833 (   715 PWs)   bands (ev):

    -2.8592   0.6046   3.1199   3.9566

          k =-0.0833-0.5833 0.0833 (   714 PWs)   bands (ev):

    -4.0001   2.2568   4.2506   4.4799

          k =-0.2500 0.2500 0.2500 (   715 PWs)   bands (ev):

    -4.7487   2.6948   5.9269   5.9269

          k =-0.4167 0.4167 0.0833 (   720 PWs)   bands (ev):

    -4.0360   1.7607   3.6823   5.7548

          k = 0.4167-0.4167 0.9167 (   708 PWs)   bands (ev):

    -2.7903   0.2783   2.5078   4.9222

          k = 0.2500-0.2500 0.7500 (   711 PWs)   bands (ev):

    -2.7386   0.1969   3.0228   4.4123

          k =-0.2500 0.5833 0.2500 (   713 PWs)   bands (ev):

    -3.5894   0.9078   4.2012   4.8038

          k = 0.5833-0.2500 1.0833 (   715 PWs)   bands (ev):

    -2.5335   0.1846   2.6091   3.9474

          k = 0.4167-0.0833 0.9167 (   716 PWs)   bands (ev):

    -1.6575  -0.5607   2.4165   3.2368

          k =-0.2500-1.0833 0.2500 (   717 PWs)   bands (ev):

    -1.8766  -0.4790   2.2840   4.2084

          k =-0.4167 0.4167 0.4167 (   721 PWs)   bands (ev):

    -3.4874   0.0493   5.5274   5.5274

          k = 0.4167-0.4167 1.2500 (   710 PWs)   bands (ev):

    -2.8453  -0.2507   3.6139   5.0576

     highest occupied level (ev):     6.5672

!    total energy              =     -93.44920713 Ry

     total all-electron energy =     -1160.140937 Ry
     estimated scf accuracy    <       0.00000051 Ry

     The total energy is the sum of the following terms:
     one-electron contribution =       6.12252342 Ry
     hartree contribution      =       1.05828905 Ry
     xc contribution           =     -12.36789716 Ry
     ewald contribution        =     -17.06708295 Ry
     one-center paw contrib.   =     -71.19503949 Ry

     convergence has been achieved in   5 iterations

     Writing output data file ././silicon.save/

     init_run     :      0.56s CPU      0.50s WALL (       1 calls)
     electrons    :      3.32s CPU      2.29s WALL (       1 calls)

     Called by init_run:
     wfcinit      :      0.15s CPU      0.11s WALL (       1 calls)
     potinit      :      0.20s CPU      0.22s WALL (       1 calls)
     hinit0       :      0.19s CPU      0.16s WALL (       1 calls)

     Called by electrons:
     c_bands      :      1.44s CPU      0.86s WALL (       6 calls)
     sum_band     :      0.45s CPU      0.23s WALL (       6 calls)
     v_of_rho     :      0.09s CPU      0.05s WALL (       6 calls)
     newd         :      0.05s CPU      0.04s WALL (       6 calls)
     PAW_pot      :      1.48s CPU      1.31s WALL (       6 calls)
     mix_rho      :      0.00s CPU      0.00s WALL (       6 calls)

     Called by c_bands:
     init_us_2    :      0.12s CPU      0.07s WALL (     364 calls)
     cegterg      :      1.01s CPU      0.58s WALL (     168 calls)

     Called by *egterg:
     cdiaghg      :      0.02s CPU      0.01s WALL (     516 calls)
     h_psi        :      1.00s CPU      0.59s WALL (     572 calls)
     s_psi        :      0.04s CPU      0.03s WALL (     572 calls)
     g_psi        :      0.01s CPU      0.01s WALL (     376 calls)

     Called by h_psi:
     h_psi:calbec :      0.05s CPU      0.05s WALL (     572 calls)
     vloc_psi     :      0.91s CPU      0.52s WALL (     572 calls)
     add_vuspsi   :      0.03s CPU      0.02s WALL (     572 calls)

     General routines
     calbec       :      0.07s CPU      0.06s WALL (     740 calls)
     fft          :      0.01s CPU      0.01s WALL (      67 calls)
     ffts         :      0.00s CPU      0.00s WALL (       6 calls)
     fftw         :      0.71s CPU      0.41s WALL (    4916 calls)

     Parallel routines

     PWSCF        :      3.95s CPU      2.87s WALL


   This run was terminated on:  13:42:47  21May2024            

=------------------------------------------------------------------------------=
   JOB DONE.
=------------------------------------------------------------------------------=
