
     Program PWSCF v.6.7MaX starts on 21May2024 at 13:42:48 

     This program is part of the open-source Quantum ESPRESSO suite
     for quantum simulation of materials; please cite
         "P. Giannozzi et al., J. Phys.:Condens. Matter 21 395502 (2009);
         "P. Giannozzi et al., J. Phys.:Condens. Matter 29 465901 (2017);
          URL http://www.quantum-espresso.org", 
     in publications or presentations arising from this work. More details at
     http://www.quantum-espresso.org/quote

     Parallel version (MPI), running on     1 processors

     MPI processes distributed on     1 nodes
     Waiting for input...
     Reading input from standard input

     Current dimensions of program PWSCF are:
     Max number of different atomic species (ntypx) = 10
     Max number of k-points (npk) =  40000
     Max angular momentum in pseudopotentials (lmaxx) =  3
     file Si.UPF: wavefunction(s)  3S 3P renormalized

     Subspace diagonalization in iterative solution of the eigenvalue problem:
     a serial algorithm will be used


     G-vector sticks info
     --------------------
     sticks:   dense  smooth     PW     G-vecs:    dense   smooth      PW
     Sum         433     433    151                 5817     5817    1139



     bravais-lattice index     =            2
     lattice parameter (alat)  =      10.1500  a.u.
     unit-cell volume          =     261.4196 (a.u.)^3
     number of atoms/cell      =            2
     number of atomic types    =            1
     number of electrons       =         8.00
     number of Kohn-Sham states=            4
     kinetic-energy cutoff     =      30.0000  Ry
     charge density cutoff     =     120.0000  Ry
     scf convergence threshold =      1.0E-06
     mixing beta               =       0.6000
     number of iterations used =            8  plain     mixing
     Exchange-correlation= SLA  PW   PBX  PBC
                           (   1   4   3   4   0   0   0)

     celldm(1)=  10.150000  celldm(2)=   0.000000  celldm(3)=   0.000000
     celldm(4)=   0.000000  celldm(5)=   0.000000  celldm(6)=   0.000000

     crystal axes: (cart. coord. in units of alat)
               a(1) = (  -0.500000   0.000000   0.500000 )  
               a(2) = (   0.000000   0.500000   0.500000 )  
               a(3) = (  -0.500000   0.500000   0.000000 )  

     reciprocal axes: (cart. coord. in units 2 pi/alat)
               b(1) = ( -1.000000 -1.000000  1.000000 )  
               b(2) = (  1.000000  1.000000  1.000000 )  
               b(3) = ( -1.000000  1.000000 -1.000000 )  


     PseudoPot. # 1 for Si read from file:
     ././Si.UPF
     MD5 check sum: c39c59da582df4a0d9f10159256ea34e
     Pseudo is Projector augmented-wave + core cor, Zval =  4.0
     Generated using &quot;atomic&quot; code by A. Dal Corso  v.6.3
     Shape of augmentation charge: PSQ
     Using radial grid of 1141 points,  6 beta functions with: 
                l(1) =   0
                l(2) =   0
                l(3) =   1
                l(4) =   1
                l(5) =   2
                l(6) =   2
     Q(r) pseudized with 0 coefficients 


     atomic species   valence    mass     pseudopotential
        Si             4.00    28.08600     Si( 1.00)

     48 Sym. Ops., with inversion, found (24 have fractional translation)



   Cartesian axes

     site n.     atom                  positions (alat units)
         1           Si  tau(   1) = (   0.0000000   0.0000000   0.0000000  )
         2           Si  tau(   2) = (   0.2500000   0.2500000   0.2500000  )

     number of k points=    28
                       cart. coord. in units 2pi/alat
        k(    1) = (  -0.0833333   0.0833333   0.0833333), wk =   0.0185185
        k(    2) = (  -0.2500000   0.2500000  -0.0833333), wk =   0.0555556
        k(    3) = (  -0.4166667   0.4166667  -0.2500000), wk =   0.0555556
        k(    4) = (   0.4166667  -0.4166667   0.5833333), wk =   0.0555556
        k(    5) = (   0.2500000  -0.2500000   0.4166667), wk =   0.0555556
        k(    6) = (   0.0833333  -0.0833333   0.2500000), wk =   0.0555556
        k(    7) = (  -0.0833333   0.4166667   0.0833333), wk =   0.0555556
        k(    8) = (  -0.2500000   0.5833333  -0.0833333), wk =   0.1111111
        k(    9) = (   0.5833333  -0.2500000   0.7500000), wk =   0.1111111
        k(   10) = (   0.4166667  -0.0833333   0.5833333), wk =   0.1111111
        k(   11) = (   0.2500000   0.0833333   0.4166667), wk =   0.1111111
        k(   12) = (  -0.0833333   0.7500000   0.0833333), wk =   0.0555556
        k(   13) = (   0.7500000  -0.0833333   0.9166667), wk =   0.1111111
        k(   14) = (   0.5833333   0.0833333   0.7500000), wk =   0.1111111
        k(   15) = (   0.4166667   0.2500000   0.5833333), wk =   0.1111111
        k(   16) = (  -0.0833333  -0.9166667   0.0833333), wk =   0.0555556
        k(   17) = (  -0.2500000  -0.7500000  -0.0833333), wk =   0.1111111
        k(   18) = (  -0.0833333  -0.5833333   0.0833333), wk =   0.0555556
        k(   19) = (  -0.2500000   0.2500000   0.2500000), wk =   0.0185185
        k(   20) = (  -0.4166667   0.4166667   0.0833333), wk =   0.0555556
        k(   21) = (   0.4166667  -0.4166667   0.9166667), wk =   0.0555556
        k(   22) = (   0.2500000  -0.2500000   0.7500000), wk =   0.0555556
        k(   23) = (  -0.2500000   0.5833333   0.2500000), wk =   0.0555556
        k(   24) = (   0.5833333  -0.2500000   1.0833333), wk =   0.1111111
        k(   25) = (   0.4166667  -0.0833333   0.9166667), wk =   0.1111111
        k(   26) = (  -0.2500000  -1.0833333   0.2500000), wk =   0.0555556
        k(   27) = (  -0.4166667   0.4166667   0.4166667), wk =   0.0185185
        k(   28) = (   0.4166667  -0.4166667   1.2500000), wk =   0.0555556

     Dense  grid:     5817 G-vectors     FFT dimensions: (  32,  32,  32)

     Estimated max dynamical RAM per process >      23.92 MB

     Check: negative core charge=   -0.000004

     Initial potential from superposition of free atoms

     starting charge    7.99888, renormalised to    8.00000
     Starting wfcs are    8 randomized atomic wfcs
     Checking if some PAW data can be deallocated... 

     total cpu time spent up to now is        0.5 secs

     Self-consistent Calculation

     iteration #  1     ecut=    30.00 Ry     beta= 0.60
     Davidson diagonalization with overlap
     ethr =  1.00E-02,  avg # of iterations =  2.0

     Threshold (ethr) on eigenvalues was too large:
     Diagonalizing with lowered threshold

     Davidson diagonalization with overlap
     ethr =  6.58E-04,  avg # of iterations =  1.4

     total cpu time spent up to now is        1.1 secs

     total energy              =     -93.44884642 Ry
     estimated scf accuracy    <       0.05698902 Ry

     iteration #  2     ecut=    30.00 Ry     beta= 0.60
     Davidson diagonalization with overlap
     ethr =  7.12E-04,  avg # of iterations =  1.0

     total cpu time spent up to now is        1.5 secs

     total energy              =     -93.44967316 Ry
     estimated scf accuracy    <       0.00627492 Ry

     iteration #  3     ecut=    30.00 Ry     beta= 0.60
     Davidson diagonalization with overlap
     ethr =  7.84E-05,  avg # of iterations =  2.1

     total cpu time spent up to now is        1.9 secs

     total energy              =     -93.45073712 Ry
     estimated scf accuracy    <       0.00016358 Ry

     iteration #  4     ecut=    30.00 Ry     beta= 0.60
     Davidson diagonalization with overlap
     ethr =  2.04E-06,  avg # of iterations =  4.1

     total cpu time spent up to now is        2.4 secs

     total energy              =     -93.45084512 Ry
     estimated scf accuracy    <       0.00002439 Ry

     iteration #  5     ecut=    30.00 Ry     beta= 0.60
     Davidson diagonalization with overlap
     ethr =  3.05E-07,  avg # of iterations =  3.4

     total cpu time spent up to now is        2.8 secs

     End of self-consistent calculation

          k =-0.0833 0.0833 0.0833 (   728 PWs)   bands (ev):

    -5.5442   5.6958   6.4089   6.4089

          k =-0.2500 0.2500-0.0833 (   723 PWs)   bands (ev):

    -5.0519   3.5816   5.1261   6.1981

          k =-0.4167 0.4167-0.2500 (   737 PWs)   bands (ev):

    -3.9191   0.7295   4.6604   5.5398

          k = 0.4167-0.4167 0.5833 (   728 PWs)   bands (ev):

    -3.1846  -0.4637   4.7374   5.1433

          k = 0.2500-0.2500 0.4167 (   726 PWs)   bands (ev):

    -4.3474   1.6053   5.1988   5.2539

          k = 0.0833-0.0833 0.2500 (   720 PWs)   bands (ev):

    -5.2958   4.6208   5.7336   5.9453

          k =-0.0833 0.4167 0.0833 (   724 PWs)   bands (ev):

    -4.8031   3.4210   4.9755   4.9770

          k =-0.2500 0.5833-0.0833 (   729 PWs)   bands (ev):

    -3.8612   1.5343   3.5989   4.5798

          k = 0.5833-0.2500 0.7500 (   722 PWs)   bands (ev):

    -2.6931  -0.2986   2.9899   4.3398

          k = 0.4167-0.0833 0.5833 (   726 PWs)   bands (ev):

    -3.4501   0.8113   2.9307   4.8501

          k = 0.2500 0.0833 0.4167 (   728 PWs)   bands (ev):

    -4.5696   2.5430   4.3227   5.5522

          k =-0.0833 0.7500 0.0833 (   726 PWs)   bands (ev):

    -3.1274   0.7069   3.5549   3.9153

          k = 0.7500-0.0833 0.9167 (   728 PWs)   bands (ev):

    -1.8856  -0.6735   2.6691   3.4850

          k = 0.5833 0.0833 0.7500 (   720 PWs)   bands (ev):

    -2.2594  -0.3475   2.1712   4.0528

          k = 0.4167 0.2500 0.5833 (   726 PWs)   bands (ev):

    -3.3293   0.0708   3.9314   4.9545

          k =-0.0833-0.9167 0.0833 (   728 PWs)   bands (ev):

    -1.9857  -0.6843   3.2747   3.6935

          k =-0.2500-0.7500-0.0833 (   724 PWs)   bands (ev):

    -2.9501   0.4722   3.0122   3.8372

          k =-0.0833-0.5833 0.0833 (   722 PWs)   bands (ev):

    -4.0751   2.1065   4.1246   4.3507

          k =-0.2500 0.2500 0.2500 (   733 PWs)   bands (ev):

    -4.8144   2.5643   5.7759   5.7759

          k =-0.4167 0.4167 0.0833 (   729 PWs)   bands (ev):

    -4.1114   1.6307   3.5626   5.6046

          k = 0.4167-0.4167 0.9167 (   722 PWs)   bands (ev):

    -2.8850   0.1602   2.4071   4.7849

          k = 0.2500-0.2500 0.7500 (   724 PWs)   bands (ev):

    -2.8331   0.0795   2.9119   4.2827

          k =-0.2500 0.5833 0.2500 (   722 PWs)   bands (ev):

    -3.6713   0.7906   4.0664   4.6691

          k = 0.5833-0.2500 1.0833 (   724 PWs)   bands (ev):

    -2.6310   0.0610   2.5081   3.8299

          k = 0.4167-0.0833 0.9167 (   722 PWs)   bands (ev):

    -1.7679  -0.6815   2.3237   3.1314

          k =-0.2500-1.0833 0.2500 (   722 PWs)   bands (ev):

    -1.9846  -0.5962   2.1929   4.0815

          k =-0.4167 0.4167 0.4167 (   736 PWs)   bands (ev):

    -3.5731  -0.0475   5.3794   5.3794

          k = 0.4167-0.4167 1.2500 (   725 PWs)   bands (ev):

    -2.9418  -0.3477   3.4880   4.9179

     highest occupied level (ev):     6.4089

!    total energy              =     -93.45085403 Ry

     total all-electron energy =     -1160.142584 Ry
     estimated scf accuracy    <       0.00000069 Ry

     The total energy is the sum of the following terms:
     one-electron contribution =       6.00260302 Ry
     hartree contribution      =       1.07113231 Ry
     xc contribution           =     -12.34923941 Ry
     ewald contribution        =     -16.98300865 Ry
     one-center paw contrib.   =     -71.19234129 Ry

     convergence has been achieved in   5 iterations

     Writing output data file ././silicon.save/

     init_run     :      0.56s CPU      0.47s WALL (       1 calls)
     electrons    :      3.32s CPU      2.33s WALL (       1 calls)

     Called by init_run:
     wfcinit      :      0.13s CPU      0.08s WALL (       1 calls)
     potinit      :      0.21s CPU      0.22s WALL (       1 calls)
     hinit0       :      0.20s CPU      0.16s WALL (       1 calls)

     Called by electrons:
     c_bands      :      1.46s CPU      0.88s WALL (       6 calls)
     sum_band     :      0.39s CPU      0.24s WALL (       6 calls)
     v_of_rho     :      0.08s CPU      0.05s WALL (       6 calls)
     newd         :      0.06s CPU      0.04s WALL (       6 calls)
     PAW_pot      :      1.54s CPU      1.31s WALL (       6 calls)
     mix_rho      :      0.00s CPU      0.00s WALL (       6 calls)

     Called by c_bands:
     init_us_2    :      0.11s CPU      0.07s WALL (     364 calls)
     cegterg      :      1.02s CPU      0.59s WALL (     168 calls)

     Called by *egterg:
     cdiaghg      :      0.02s CPU      0.01s WALL (     532 calls)
     h_psi        :      0.99s CPU      0.58s WALL (     588 calls)
     s_psi        :      0.03s CPU      0.01s WALL (     588 calls)
     g_psi        :      0.01s CPU      0.01s WALL (     392 calls)

     Called by h_psi:
     h_psi:calbec :      0.04s CPU      0.03s WALL (     588 calls)
     vloc_psi     :      0.91s CPU      0.53s WALL (     588 calls)
     add_vuspsi   :      0.03s CPU      0.02s WALL (     588 calls)

     General routines
     calbec       :      0.05s CPU      0.04s WALL (     756 calls)
     fft          :      0.01s CPU      0.01s WALL (      67 calls)
     ffts         :      0.00s CPU      0.00s WALL (       6 calls)
     fftw         :      0.69s CPU      0.41s WALL (    4960 calls)

     Parallel routines

     PWSCF        :      3.95s CPU      2.87s WALL


   This run was terminated on:  13:42:51  21May2024            

=------------------------------------------------------------------------------=
   JOB DONE.
=------------------------------------------------------------------------------=
