
     Program PWSCF v.6.7MaX starts on 21May2024 at 13:43: 8 

     This program is part of the open-source Quantum ESPRESSO suite
     for quantum simulation of materials; please cite
         "P. Giannozzi et al., J. Phys.:Condens. Matter 21 395502 (2009);
         "P. Giannozzi et al., J. Phys.:Condens. Matter 29 465901 (2017);
          URL http://www.quantum-espresso.org", 
     in publications or presentations arising from this work. More details at
     http://www.quantum-espresso.org/quote

     Parallel version (MPI), running on     1 processors

     MPI processes distributed on     1 nodes
     Waiting for input...
     Reading input from standard input

     Current dimensions of program PWSCF are:
     Max number of different atomic species (ntypx) = 10
     Max number of k-points (npk) =  40000
     Max angular momentum in pseudopotentials (lmaxx) =  3
     file Si.UPF: wavefunction(s)  3S 3P renormalized

     Subspace diagonalization in iterative solution of the eigenvalue problem:
     a serial algorithm will be used


     G-vector sticks info
     --------------------
     sticks:   dense  smooth     PW     G-vecs:    dense   smooth      PW
     Sum         451     451    151                 6303     6303    1243



     bravais-lattice index     =            2
     lattice parameter (alat)  =      10.4500  a.u.
     unit-cell volume          =     285.2915 (a.u.)^3
     number of atoms/cell      =            2
     number of atomic types    =            1
     number of electrons       =         8.00
     number of Kohn-Sham states=            4
     kinetic-energy cutoff     =      30.0000  Ry
     charge density cutoff     =     120.0000  Ry
     scf convergence threshold =      1.0E-06
     mixing beta               =       0.6000
     number of iterations used =            8  plain     mixing
     Exchange-correlation= SLA  PW   PBX  PBC
                           (   1   4   3   4   0   0   0)

     celldm(1)=  10.450000  celldm(2)=   0.000000  celldm(3)=   0.000000
     celldm(4)=   0.000000  celldm(5)=   0.000000  celldm(6)=   0.000000

     crystal axes: (cart. coord. in units of alat)
               a(1) = (  -0.500000   0.000000   0.500000 )  
               a(2) = (   0.000000   0.500000   0.500000 )  
               a(3) = (  -0.500000   0.500000   0.000000 )  

     reciprocal axes: (cart. coord. in units 2 pi/alat)
               b(1) = ( -1.000000 -1.000000  1.000000 )  
               b(2) = (  1.000000  1.000000  1.000000 )  
               b(3) = ( -1.000000  1.000000 -1.000000 )  


     PseudoPot. # 1 for Si read from file:
     ././Si.UPF
     MD5 check sum: c39c59da582df4a0d9f10159256ea34e
     Pseudo is Projector augmented-wave + core cor, Zval =  4.0
     Generated using &quot;atomic&quot; code by A. Dal Corso  v.6.3
     Shape of augmentation charge: PSQ
     Using radial grid of 1141 points,  6 beta functions with: 
                l(1) =   0
                l(2) =   0
                l(3) =   1
                l(4) =   1
                l(5) =   2
                l(6) =   2
     Q(r) pseudized with 0 coefficients 


     atomic species   valence    mass     pseudopotential
        Si             4.00    28.08600     Si( 1.00)

     48 Sym. Ops., with inversion, found (24 have fractional translation)



   Cartesian axes

     site n.     atom                  positions (alat units)
         1           Si  tau(   1) = (   0.0000000   0.0000000   0.0000000  )
         2           Si  tau(   2) = (   0.2500000   0.2500000   0.2500000  )

     number of k points=    28
                       cart. coord. in units 2pi/alat
        k(    1) = (  -0.0833333   0.0833333   0.0833333), wk =   0.0185185
        k(    2) = (  -0.2500000   0.2500000  -0.0833333), wk =   0.0555556
        k(    3) = (  -0.4166667   0.4166667  -0.2500000), wk =   0.0555556
        k(    4) = (   0.4166667  -0.4166667   0.5833333), wk =   0.0555556
        k(    5) = (   0.2500000  -0.2500000   0.4166667), wk =   0.0555556
        k(    6) = (   0.0833333  -0.0833333   0.2500000), wk =   0.0555556
        k(    7) = (  -0.0833333   0.4166667   0.0833333), wk =   0.0555556
        k(    8) = (  -0.2500000   0.5833333  -0.0833333), wk =   0.1111111
        k(    9) = (   0.5833333  -0.2500000   0.7500000), wk =   0.1111111
        k(   10) = (   0.4166667  -0.0833333   0.5833333), wk =   0.1111111
        k(   11) = (   0.2500000   0.0833333   0.4166667), wk =   0.1111111
        k(   12) = (  -0.0833333   0.7500000   0.0833333), wk =   0.0555556
        k(   13) = (   0.7500000  -0.0833333   0.9166667), wk =   0.1111111
        k(   14) = (   0.5833333   0.0833333   0.7500000), wk =   0.1111111
        k(   15) = (   0.4166667   0.2500000   0.5833333), wk =   0.1111111
        k(   16) = (  -0.0833333  -0.9166667   0.0833333), wk =   0.0555556
        k(   17) = (  -0.2500000  -0.7500000  -0.0833333), wk =   0.1111111
        k(   18) = (  -0.0833333  -0.5833333   0.0833333), wk =   0.0555556
        k(   19) = (  -0.2500000   0.2500000   0.2500000), wk =   0.0185185
        k(   20) = (  -0.4166667   0.4166667   0.0833333), wk =   0.0555556
        k(   21) = (   0.4166667  -0.4166667   0.9166667), wk =   0.0555556
        k(   22) = (   0.2500000  -0.2500000   0.7500000), wk =   0.0555556
        k(   23) = (  -0.2500000   0.5833333   0.2500000), wk =   0.0555556
        k(   24) = (   0.5833333  -0.2500000   1.0833333), wk =   0.1111111
        k(   25) = (   0.4166667  -0.0833333   0.9166667), wk =   0.1111111
        k(   26) = (  -0.2500000  -1.0833333   0.2500000), wk =   0.0555556
        k(   27) = (  -0.4166667   0.4166667   0.4166667), wk =   0.0185185
        k(   28) = (   0.4166667  -0.4166667   1.2500000), wk =   0.0555556

     Dense  grid:     6303 G-vectors     FFT dimensions: (  32,  32,  32)

     Estimated max dynamical RAM per process >      25.67 MB

     Check: negative core charge=   -0.000004

     Initial potential from superposition of free atoms

     starting charge    7.99888, renormalised to    8.00000
     Starting wfcs are    8 randomized atomic wfcs
     Checking if some PAW data can be deallocated... 

     total cpu time spent up to now is        0.5 secs

     Self-consistent Calculation

     iteration #  1     ecut=    30.00 Ry     beta= 0.60
     Davidson diagonalization with overlap
     ethr =  1.00E-02,  avg # of iterations =  2.0

     Threshold (ethr) on eigenvalues was too large:
     Diagonalizing with lowered threshold

     Davidson diagonalization with overlap
     ethr =  5.67E-04,  avg # of iterations =  1.6

     total cpu time spent up to now is        1.2 secs

     total energy              =     -93.45109790 Ry
     estimated scf accuracy    <       0.04928022 Ry

     iteration #  2     ecut=    30.00 Ry     beta= 0.60
     Davidson diagonalization with overlap
     ethr =  6.16E-04,  avg # of iterations =  1.0

     total cpu time spent up to now is        1.6 secs

     total energy              =     -93.45165978 Ry
     estimated scf accuracy    <       0.00585129 Ry

     iteration #  3     ecut=    30.00 Ry     beta= 0.60
     Davidson diagonalization with overlap
     ethr =  7.31E-05,  avg # of iterations =  2.1

     total cpu time spent up to now is        2.0 secs

     total energy              =     -93.45244747 Ry
     estimated scf accuracy    <       0.00012270 Ry

     iteration #  4     ecut=    30.00 Ry     beta= 0.60
     Davidson diagonalization with overlap
     ethr =  1.53E-06,  avg # of iterations =  4.5

     total cpu time spent up to now is        2.5 secs

     total energy              =     -93.45255830 Ry
     estimated scf accuracy    <       0.00001050 Ry

     iteration #  5     ecut=    30.00 Ry     beta= 0.60
     Davidson diagonalization with overlap
     ethr =  1.31E-07,  avg # of iterations =  3.9

     total cpu time spent up to now is        3.0 secs

     End of self-consistent calculation

          k =-0.0833 0.0833 0.0833 (   797 PWs)   bands (ev):

    -5.8610   4.7867   5.5145   5.5145

          k =-0.2500 0.2500-0.0833 (   803 PWs)   bands (ev):

    -5.4053   2.7462   4.3349   5.3067

          k =-0.4167 0.4167-0.2500 (   792 PWs)   bands (ev):

    -4.3665   0.0983   3.8740   4.6957

          k = 0.4167-0.4167 0.5833 (   793 PWs)   bands (ev):

    -3.7132  -0.9844   3.9288   4.3340

          k = 0.2500-0.2500 0.4167 (   794 PWs)   bands (ev):

    -4.7567   0.9075   4.3977   4.4072

          k = 0.0833-0.0833 0.2500 (   795 PWs)   bands (ev):

    -5.6308   3.7229   4.9023   5.0617

          k =-0.0833 0.4167 0.0833 (   804 PWs)   bands (ev):

    -5.1744   2.5278   4.1767   4.2047

          k =-0.2500 0.5833-0.0833 (   794 PWs)   bands (ev):

    -4.3058   0.7496   2.9272   3.8312

          k = 0.5833-0.2500 0.7500 (   794 PWs)   bands (ev):

    -3.2549  -0.9009   2.3369   3.6188

          k = 0.4167-0.0833 0.5833 (   790 PWs)   bands (ev):

    -3.9327   0.0936   2.3145   4.0774

          k = 0.2500 0.0833 0.4167 (   796 PWs)   bands (ev):

    -4.9596   1.7407   3.5911   4.7065

          k =-0.0833 0.7500 0.0833 (   787 PWs)   bands (ev):

    -3.6239  -0.0722   2.9003   3.2173

          k = 0.7500-0.0833 0.9167 (   783 PWs)   bands (ev):

    -2.4871  -1.3597   2.1097   2.8376

          k = 0.5833 0.0833 0.7500 (   792 PWs)   bands (ev):

    -2.8527  -1.0162   1.6458   3.3562

          k = 0.4167 0.2500 0.5833 (   794 PWs)   bands (ev):

    -3.8314  -0.5241   3.1867   4.1681

          k =-0.0833-0.9167 0.0833 (   781 PWs)   bands (ev):

    -2.5690  -1.3649   2.6438   3.0103

          k =-0.2500-0.7500-0.0833 (   788 PWs)   bands (ev):

    -3.4663  -0.2818   2.4067   3.1631

          k =-0.0833-0.5833 0.0833 (   804 PWs)   bands (ev):

    -4.5005   1.2488   3.4157   3.6230

          k =-0.2500 0.2500 0.2500 (   797 PWs)   bands (ev):

    -5.1864   1.8151   4.9247   4.9247

          k =-0.4167 0.4167 0.0833 (   799 PWs)   bands (ev):

    -4.5388   0.8841   2.8914   4.7586

          k = 0.4167-0.4167 0.9167 (   790 PWs)   bands (ev):

    -3.4211  -0.5175   1.8437   4.0116

          k = 0.2500-0.2500 0.7500 (   788 PWs)   bands (ev):

    -3.3687  -0.5948   2.2913   3.5537

          k =-0.2500 0.5833 0.2500 (   799 PWs)   bands (ev):

    -4.1359   0.1168   3.3111   3.9106

          k = 0.5833-0.2500 1.0833 (   789 PWs)   bands (ev):

    -3.1834  -0.6450   1.9421   3.1659

          k = 0.4167-0.0833 0.9167 (   780 PWs)   bands (ev):

    -2.3931  -1.3673   1.7996   2.5357

          k =-0.2500-1.0833 0.2500 (   788 PWs)   bands (ev):

    -2.5957  -1.2640   1.6789   3.3674

          k =-0.4167 0.4167 0.4167 (   796 PWs)   bands (ev):

    -4.0584  -0.6031   4.5472   4.5472

          k = 0.4167-0.4167 1.2500 (   791 PWs)   bands (ev):

    -3.4870  -0.9082   2.7829   4.1314

     highest occupied level (ev):     5.5145

!    total energy              =     -93.45256384 Ry

     total all-electron energy =     -1160.144294 Ry
     estimated scf accuracy    <       0.00000037 Ry

     The total energy is the sum of the following terms:
     one-electron contribution =       5.31583936 Ry
     hartree contribution      =       1.14881226 Ry
     xc contribution           =     -12.24346236 Ry
     ewald contribution        =     -16.49545817 Ry
     one-center paw contrib.   =     -71.17829494 Ry

     convergence has been achieved in   5 iterations

     Writing output data file ././silicon.save/

     init_run     :      0.56s CPU      0.48s WALL (       1 calls)
     electrons    :      3.61s CPU      2.68s WALL (       1 calls)

     Called by init_run:
     wfcinit      :      0.13s CPU      0.09s WALL (       1 calls)
     potinit      :      0.21s CPU      0.22s WALL (       1 calls)
     hinit0       :      0.21s CPU      0.16s WALL (       1 calls)

     Called by electrons:
     c_bands      :      1.67s CPU      1.02s WALL (       6 calls)
     sum_band     :      0.44s CPU      0.25s WALL (       6 calls)
     v_of_rho     :      0.09s CPU      0.06s WALL (       6 calls)
     newd         :      0.04s CPU      0.04s WALL (       6 calls)
     PAW_pot      :      1.50s CPU      1.34s WALL (       6 calls)
     mix_rho      :      0.00s CPU      0.00s WALL (       6 calls)

     Called by c_bands:
     init_us_2    :      0.14s CPU      0.08s WALL (     364 calls)
     cegterg      :      1.15s CPU      0.68s WALL (     168 calls)

     Called by *egterg:
     cdiaghg      :      0.03s CPU      0.01s WALL (     562 calls)
     h_psi        :      1.11s CPU      0.66s WALL (     618 calls)
     s_psi        :      0.03s CPU      0.02s WALL (     618 calls)
     g_psi        :      0.01s CPU      0.01s WALL (     422 calls)

     Called by h_psi:
     h_psi:calbec :      0.07s CPU      0.06s WALL (     618 calls)
     vloc_psi     :      0.99s CPU      0.57s WALL (     618 calls)
     add_vuspsi   :      0.04s CPU      0.02s WALL (     618 calls)

     General routines
     calbec       :      0.08s CPU      0.07s WALL (     786 calls)
     fft          :      0.02s CPU      0.01s WALL (      67 calls)
     ffts         :      0.00s CPU      0.00s WALL (       6 calls)
     fftw         :      0.77s CPU      0.44s WALL (    5046 calls)

     Parallel routines

     PWSCF        :      4.24s CPU      3.37s WALL


   This run was terminated on:  13:43:11  21May2024            

=------------------------------------------------------------------------------=
   JOB DONE.
=------------------------------------------------------------------------------=
