
     Program PWSCF v.6.7MaX starts on 21May2024 at 13:43:19 

     This program is part of the open-source Quantum ESPRESSO suite
     for quantum simulation of materials; please cite
         "P. Giannozzi et al., J. Phys.:Condens. Matter 21 395502 (2009);
         "P. Giannozzi et al., J. Phys.:Condens. Matter 29 465901 (2017);
          URL http://www.quantum-espresso.org", 
     in publications or presentations arising from this work. More details at
     http://www.quantum-espresso.org/quote

     Parallel version (MPI), running on     1 processors

     MPI processes distributed on     1 nodes
     Waiting for input...
     Reading input from standard input

     Current dimensions of program PWSCF are:
     Max number of different atomic species (ntypx) = 10
     Max number of k-points (npk) =  40000
     Max angular momentum in pseudopotentials (lmaxx) =  3
     file Si.UPF: wavefunction(s)  3S 3P renormalized

     Subspace diagonalization in iterative solution of the eigenvalue problem:
     a serial algorithm will be used


     G-vector sticks info
     --------------------
     sticks:   dense  smooth     PW     G-vecs:    dense   smooth      PW
     Sum         463     463    151                 6615     6615    1243



     bravais-lattice index     =            2
     lattice parameter (alat)  =      10.6000  a.u.
     unit-cell volume          =     297.7540 (a.u.)^3
     number of atoms/cell      =            2
     number of atomic types    =            1
     number of electrons       =         8.00
     number of Kohn-Sham states=            4
     kinetic-energy cutoff     =      30.0000  Ry
     charge density cutoff     =     120.0000  Ry
     scf convergence threshold =      1.0E-06
     mixing beta               =       0.6000
     number of iterations used =            8  plain     mixing
     Exchange-correlation= SLA  PW   PBX  PBC
                           (   1   4   3   4   0   0   0)

     celldm(1)=  10.600000  celldm(2)=   0.000000  celldm(3)=   0.000000
     celldm(4)=   0.000000  celldm(5)=   0.000000  celldm(6)=   0.000000

     crystal axes: (cart. coord. in units of alat)
               a(1) = (  -0.500000   0.000000   0.500000 )  
               a(2) = (   0.000000   0.500000   0.500000 )  
               a(3) = (  -0.500000   0.500000   0.000000 )  

     reciprocal axes: (cart. coord. in units 2 pi/alat)
               b(1) = ( -1.000000 -1.000000  1.000000 )  
               b(2) = (  1.000000  1.000000  1.000000 )  
               b(3) = ( -1.000000  1.000000 -1.000000 )  


     PseudoPot. # 1 for Si read from file:
     ././Si.UPF
     MD5 check sum: c39c59da582df4a0d9f10159256ea34e
     Pseudo is Projector augmented-wave + core cor, Zval =  4.0
     Generated using &quot;atomic&quot; code by A. Dal Corso  v.6.3
     Shape of augmentation charge: PSQ
     Using radial grid of 1141 points,  6 beta functions with: 
                l(1) =   0
                l(2) =   0
                l(3) =   1
                l(4) =   1
                l(5) =   2
                l(6) =   2
     Q(r) pseudized with 0 coefficients 


     atomic species   valence    mass     pseudopotential
        Si             4.00    28.08600     Si( 1.00)

     48 Sym. Ops., with inversion, found (24 have fractional translation)



   Cartesian axes

     site n.     atom                  positions (alat units)
         1           Si  tau(   1) = (   0.0000000   0.0000000   0.0000000  )
         2           Si  tau(   2) = (   0.2500000   0.2500000   0.2500000  )

     number of k points=    28
                       cart. coord. in units 2pi/alat
        k(    1) = (  -0.0833333   0.0833333   0.0833333), wk =   0.0185185
        k(    2) = (  -0.2500000   0.2500000  -0.0833333), wk =   0.0555556
        k(    3) = (  -0.4166667   0.4166667  -0.2500000), wk =   0.0555556
        k(    4) = (   0.4166667  -0.4166667   0.5833333), wk =   0.0555556
        k(    5) = (   0.2500000  -0.2500000   0.4166667), wk =   0.0555556
        k(    6) = (   0.0833333  -0.0833333   0.2500000), wk =   0.0555556
        k(    7) = (  -0.0833333   0.4166667   0.0833333), wk =   0.0555556
        k(    8) = (  -0.2500000   0.5833333  -0.0833333), wk =   0.1111111
        k(    9) = (   0.5833333  -0.2500000   0.7500000), wk =   0.1111111
        k(   10) = (   0.4166667  -0.0833333   0.5833333), wk =   0.1111111
        k(   11) = (   0.2500000   0.0833333   0.4166667), wk =   0.1111111
        k(   12) = (  -0.0833333   0.7500000   0.0833333), wk =   0.0555556
        k(   13) = (   0.7500000  -0.0833333   0.9166667), wk =   0.1111111
        k(   14) = (   0.5833333   0.0833333   0.7500000), wk =   0.1111111
        k(   15) = (   0.4166667   0.2500000   0.5833333), wk =   0.1111111
        k(   16) = (  -0.0833333  -0.9166667   0.0833333), wk =   0.0555556
        k(   17) = (  -0.2500000  -0.7500000  -0.0833333), wk =   0.1111111
        k(   18) = (  -0.0833333  -0.5833333   0.0833333), wk =   0.0555556
        k(   19) = (  -0.2500000   0.2500000   0.2500000), wk =   0.0185185
        k(   20) = (  -0.4166667   0.4166667   0.0833333), wk =   0.0555556
        k(   21) = (   0.4166667  -0.4166667   0.9166667), wk =   0.0555556
        k(   22) = (   0.2500000  -0.2500000   0.7500000), wk =   0.0555556
        k(   23) = (  -0.2500000   0.5833333   0.2500000), wk =   0.0555556
        k(   24) = (   0.5833333  -0.2500000   1.0833333), wk =   0.1111111
        k(   25) = (   0.4166667  -0.0833333   0.9166667), wk =   0.1111111
        k(   26) = (  -0.2500000  -1.0833333   0.2500000), wk =   0.0555556
        k(   27) = (  -0.4166667   0.4166667   0.4166667), wk =   0.0185185
        k(   28) = (   0.4166667  -0.4166667   1.2500000), wk =   0.0555556

     Dense  grid:     6615 G-vectors     FFT dimensions: (  32,  32,  32)

     Estimated max dynamical RAM per process >      26.77 MB

     Check: negative core charge=   -0.000004

     Initial potential from superposition of free atoms

     starting charge    7.99888, renormalised to    8.00000
     Starting wfcs are    8 randomized atomic wfcs
     Checking if some PAW data can be deallocated... 

     total cpu time spent up to now is        0.5 secs

     Self-consistent Calculation

     iteration #  1     ecut=    30.00 Ry     beta= 0.60
     Davidson diagonalization with overlap
     ethr =  1.00E-02,  avg # of iterations =  2.0

     Threshold (ethr) on eigenvalues was too large:
     Diagonalizing with lowered threshold

     Davidson diagonalization with overlap
     ethr =  5.28E-04,  avg # of iterations =  1.7

     total cpu time spent up to now is        1.2 secs

     total energy              =     -93.44768064 Ry
     estimated scf accuracy    <       0.04575391 Ry

     iteration #  2     ecut=    30.00 Ry     beta= 0.60
     Davidson diagonalization with overlap
     ethr =  5.72E-04,  avg # of iterations =  1.0

     total cpu time spent up to now is        1.6 secs

     total energy              =     -93.44813211 Ry
     estimated scf accuracy    <       0.00566623 Ry

     iteration #  3     ecut=    30.00 Ry     beta= 0.60
     Davidson diagonalization with overlap
     ethr =  7.08E-05,  avg # of iterations =  2.0

     total cpu time spent up to now is        2.0 secs

     total energy              =     -93.44882335 Ry
     estimated scf accuracy    <       0.00010586 Ry

     iteration #  4     ecut=    30.00 Ry     beta= 0.60
     Davidson diagonalization with overlap
     ethr =  1.32E-06,  avg # of iterations =  4.9

     total cpu time spent up to now is        2.5 secs

     total energy              =     -93.44894266 Ry
     estimated scf accuracy    <       0.00000731 Ry

     iteration #  5     ecut=    30.00 Ry     beta= 0.60
     Davidson diagonalization with overlap
     ethr =  9.13E-08,  avg # of iterations =  4.4

     total cpu time spent up to now is        3.0 secs

     End of self-consistent calculation

          k =-0.0833 0.0833 0.0833 (   854 PWs)   bands (ev):

    -6.0067   4.3570   5.1025   5.1025

          k =-0.2500 0.2500-0.0833 (   832 PWs)   bands (ev):

    -5.5681   2.3502   3.9714   4.8972

          k =-0.4167 0.4167-0.2500 (   826 PWs)   bands (ev):

    -4.5732  -0.1996   3.5131   4.3084

          k = 0.4167-0.4167 0.5833 (   824 PWs)   bands (ev):

    -3.9565  -1.2314   3.5581   3.9628

          k = 0.2500-0.2500 0.4167 (   834 PWs)   bands (ev):

    -4.9457   0.5779   4.0189   4.0296

          k = 0.0833-0.0833 0.2500 (   842 PWs)   bands (ev):

    -5.7850   3.2956   4.5194   4.6565

          k =-0.0833 0.4167 0.0833 (   838 PWs)   bands (ev):

    -5.3456   2.1051   3.8120   3.8495

          k =-0.2500 0.5833-0.0833 (   827 PWs)   bands (ev):

    -4.5115   0.3806   2.6205   3.4873

          k = 0.5833-0.2500 0.7500 (   826 PWs)   bands (ev):

    -3.5137  -1.1868   2.0408   3.2871

          k = 0.4167-0.0833 0.5833 (   826 PWs)   bands (ev):

    -4.1560  -0.2444   2.0339   3.7223

          k = 0.2500 0.0833 0.4167 (   835 PWs)   bands (ev):

    -5.1397   1.3610   3.2562   4.3185

          k =-0.0833 0.7500 0.0833 (   821 PWs)   bands (ev):

    -3.8541  -0.4349   2.5996   2.8973

          k = 0.7500-0.0833 0.9167 (   818 PWs)   bands (ev):

    -2.7658  -1.6782   1.8522   2.5401

          k = 0.5833 0.0833 0.7500 (   822 PWs)   bands (ev):

    -3.1264  -1.3295   1.4056   3.0359

          k = 0.4167 0.2500 0.5833 (   824 PWs)   bands (ev):

    -4.0634  -0.8058   2.8467   3.8069

          k =-0.0833-0.9167 0.0833 (   816 PWs)   bands (ev):

    -2.8398  -1.6812   2.3540   2.6972

          k =-0.2500-0.7500-0.0833 (   822 PWs)   bands (ev):

    -3.7054  -0.6331   2.1293   2.8529

          k =-0.0833-0.5833 0.0833 (   830 PWs)   bands (ev):

    -4.6972   0.8474   3.0906   3.2889

          k =-0.2500 0.2500 0.2500 (   827 PWs)   bands (ev):

    -5.3580   1.4611   4.5334   4.5334

          k =-0.4167 0.4167 0.0833 (   826 PWs)   bands (ev):

    -4.7364   0.5314   2.5849   4.3703

          k = 0.4167-0.4167 0.9167 (   829 PWs)   bands (ev):

    -3.6688  -0.8365   1.5872   3.6567

          k = 0.2500-0.2500 0.7500 (   822 PWs)   bands (ev):

    -3.6164  -0.9121   2.0089   3.2192

          k =-0.2500 0.5833 0.2500 (   822 PWs)   bands (ev):

    -4.3507  -0.2018   2.9670   3.5623

          k = 0.5833-0.2500 1.0833 (   823 PWs)   bands (ev):

    -3.4389  -0.9752   1.6840   2.8599

          k = 0.4167-0.0833 0.9167 (   825 PWs)   bands (ev):

    -2.6819  -1.6856   1.5584   2.2609

          k =-0.2500-1.0833 0.2500 (   820 PWs)   bands (ev):

    -2.8779  -1.5754   1.4426   3.0400

          k =-0.4167 0.4167 0.4167 (   829 PWs)   bands (ev):

    -4.2824  -0.8653   4.1656   4.1656

          k = 0.4167-0.4167 1.2500 (   829 PWs)   bands (ev):

    -3.7381  -1.1748   2.4615   3.7704

     highest occupied level (ev):     5.1025

!    total energy              =     -93.44894719 Ry

     total all-electron energy =     -1160.140677 Ry
     estimated scf accuracy    <       0.00000024 Ry

     The total energy is the sum of the following terms:
     one-electron contribution =       4.99190940 Ry
     hartree contribution      =       1.18788746 Ry
     xc contribution           =     -12.19425843 Ry
     ewald contribution        =     -16.26203188 Ry
     one-center paw contrib.   =     -71.17245373 Ry

     convergence has been achieved in   5 iterations

     Writing output data file ././silicon.save/

     init_run     :      0.53s CPU      0.48s WALL (       1 calls)
     electrons    :      3.72s CPU      2.58s WALL (       1 calls)

     Called by init_run:
     wfcinit      :      0.11s CPU      0.09s WALL (       1 calls)
     potinit      :      0.21s CPU      0.22s WALL (       1 calls)
     hinit0       :      0.20s CPU      0.16s WALL (       1 calls)

     Called by electrons:
     c_bands      :      1.74s CPU      1.01s WALL (       6 calls)
     sum_band     :      0.49s CPU      0.26s WALL (       6 calls)
     v_of_rho     :      0.09s CPU      0.06s WALL (       6 calls)
     newd         :      0.04s CPU      0.05s WALL (       6 calls)
     PAW_pot      :      1.50s CPU      1.34s WALL (       6 calls)
     mix_rho      :      0.00s CPU      0.00s WALL (       6 calls)

     Called by c_bands:
     init_us_2    :      0.14s CPU      0.09s WALL (     364 calls)
     cegterg      :      1.20s CPU      0.66s WALL (     168 calls)

     Called by *egterg:
     cdiaghg      :      0.03s CPU      0.02s WALL (     586 calls)
     h_psi        :      1.14s CPU      0.64s WALL (     642 calls)
     s_psi        :      0.03s CPU      0.02s WALL (     642 calls)
     g_psi        :      0.01s CPU      0.01s WALL (     446 calls)

     Called by h_psi:
     h_psi:calbec :      0.05s CPU      0.03s WALL (     642 calls)
     vloc_psi     :      1.03s CPU      0.58s WALL (     642 calls)
     add_vuspsi   :      0.04s CPU      0.02s WALL (     642 calls)

     General routines
     calbec       :      0.08s CPU      0.04s WALL (     810 calls)
     fft          :      0.01s CPU      0.01s WALL (      67 calls)
     ffts         :      0.00s CPU      0.00s WALL (       6 calls)
     fftw         :      0.78s CPU      0.45s WALL (    5074 calls)

     Parallel routines

     PWSCF        :      4.33s CPU      3.14s WALL


   This run was terminated on:  13:43:22  21May2024            

=------------------------------------------------------------------------------=
   JOB DONE.
=------------------------------------------------------------------------------=
