
     Program PWSCF v.6.7MaX starts on 21May2024 at 13:42:51 

     This program is part of the open-source Quantum ESPRESSO suite
     for quantum simulation of materials; please cite
         "P. Giannozzi et al., J. Phys.:Condens. Matter 21 395502 (2009);
         "P. Giannozzi et al., J. Phys.:Condens. Matter 29 465901 (2017);
          URL http://www.quantum-espresso.org", 
     in publications or presentations arising from this work. More details at
     http://www.quantum-espresso.org/quote

     Parallel version (MPI), running on     1 processors

     MPI processes distributed on     1 nodes
     Waiting for input...
     Reading input from standard input

     Current dimensions of program PWSCF are:
     Max number of different atomic species (ntypx) = 10
     Max number of k-points (npk) =  40000
     Max angular momentum in pseudopotentials (lmaxx) =  3
     file Si.UPF: wavefunction(s)  3S 3P renormalized

     Subspace diagonalization in iterative solution of the eigenvalue problem:
     a serial algorithm will be used


     G-vector sticks info
     --------------------
     sticks:   dense  smooth     PW     G-vecs:    dense   smooth      PW
     Sum         433     433    151                 5961     5961    1139



     bravais-lattice index     =            2
     lattice parameter (alat)  =      10.2000  a.u.
     unit-cell volume          =     265.3020 (a.u.)^3
     number of atoms/cell      =            2
     number of atomic types    =            1
     number of electrons       =         8.00
     number of Kohn-Sham states=            4
     kinetic-energy cutoff     =      30.0000  Ry
     charge density cutoff     =     120.0000  Ry
     scf convergence threshold =      1.0E-06
     mixing beta               =       0.6000
     number of iterations used =            8  plain     mixing
     Exchange-correlation= SLA  PW   PBX  PBC
                           (   1   4   3   4   0   0   0)

     celldm(1)=  10.200000  celldm(2)=   0.000000  celldm(3)=   0.000000
     celldm(4)=   0.000000  celldm(5)=   0.000000  celldm(6)=   0.000000

     crystal axes: (cart. coord. in units of alat)
               a(1) = (  -0.500000   0.000000   0.500000 )  
               a(2) = (   0.000000   0.500000   0.500000 )  
               a(3) = (  -0.500000   0.500000   0.000000 )  

     reciprocal axes: (cart. coord. in units 2 pi/alat)
               b(1) = ( -1.000000 -1.000000  1.000000 )  
               b(2) = (  1.000000  1.000000  1.000000 )  
               b(3) = ( -1.000000  1.000000 -1.000000 )  


     PseudoPot. # 1 for Si read from file:
     ././Si.UPF
     MD5 check sum: c39c59da582df4a0d9f10159256ea34e
     Pseudo is Projector augmented-wave + core cor, Zval =  4.0
     Generated using &quot;atomic&quot; code by A. Dal Corso  v.6.3
     Shape of augmentation charge: PSQ
     Using radial grid of 1141 points,  6 beta functions with: 
                l(1) =   0
                l(2) =   0
                l(3) =   1
                l(4) =   1
                l(5) =   2
                l(6) =   2
     Q(r) pseudized with 0 coefficients 


     atomic species   valence    mass     pseudopotential
        Si             4.00    28.08600     Si( 1.00)

     48 Sym. Ops., with inversion, found (24 have fractional translation)



   Cartesian axes

     site n.     atom                  positions (alat units)
         1           Si  tau(   1) = (   0.0000000   0.0000000   0.0000000  )
         2           Si  tau(   2) = (   0.2500000   0.2500000   0.2500000  )

     number of k points=    28
                       cart. coord. in units 2pi/alat
        k(    1) = (  -0.0833333   0.0833333   0.0833333), wk =   0.0185185
        k(    2) = (  -0.2500000   0.2500000  -0.0833333), wk =   0.0555556
        k(    3) = (  -0.4166667   0.4166667  -0.2500000), wk =   0.0555556
        k(    4) = (   0.4166667  -0.4166667   0.5833333), wk =   0.0555556
        k(    5) = (   0.2500000  -0.2500000   0.4166667), wk =   0.0555556
        k(    6) = (   0.0833333  -0.0833333   0.2500000), wk =   0.0555556
        k(    7) = (  -0.0833333   0.4166667   0.0833333), wk =   0.0555556
        k(    8) = (  -0.2500000   0.5833333  -0.0833333), wk =   0.1111111
        k(    9) = (   0.5833333  -0.2500000   0.7500000), wk =   0.1111111
        k(   10) = (   0.4166667  -0.0833333   0.5833333), wk =   0.1111111
        k(   11) = (   0.2500000   0.0833333   0.4166667), wk =   0.1111111
        k(   12) = (  -0.0833333   0.7500000   0.0833333), wk =   0.0555556
        k(   13) = (   0.7500000  -0.0833333   0.9166667), wk =   0.1111111
        k(   14) = (   0.5833333   0.0833333   0.7500000), wk =   0.1111111
        k(   15) = (   0.4166667   0.2500000   0.5833333), wk =   0.1111111
        k(   16) = (  -0.0833333  -0.9166667   0.0833333), wk =   0.0555556
        k(   17) = (  -0.2500000  -0.7500000  -0.0833333), wk =   0.1111111
        k(   18) = (  -0.0833333  -0.5833333   0.0833333), wk =   0.0555556
        k(   19) = (  -0.2500000   0.2500000   0.2500000), wk =   0.0185185
        k(   20) = (  -0.4166667   0.4166667   0.0833333), wk =   0.0555556
        k(   21) = (   0.4166667  -0.4166667   0.9166667), wk =   0.0555556
        k(   22) = (   0.2500000  -0.2500000   0.7500000), wk =   0.0555556
        k(   23) = (  -0.2500000   0.5833333   0.2500000), wk =   0.0555556
        k(   24) = (   0.5833333  -0.2500000   1.0833333), wk =   0.1111111
        k(   25) = (   0.4166667  -0.0833333   0.9166667), wk =   0.1111111
        k(   26) = (  -0.2500000  -1.0833333   0.2500000), wk =   0.0555556
        k(   27) = (  -0.4166667   0.4166667   0.4166667), wk =   0.0185185
        k(   28) = (   0.4166667  -0.4166667   1.2500000), wk =   0.0555556

     Dense  grid:     5961 G-vectors     FFT dimensions: (  32,  32,  32)

     Estimated max dynamical RAM per process >      24.42 MB

     Check: negative core charge=   -0.000003

     Initial potential from superposition of free atoms

     starting charge    7.99888, renormalised to    8.00000
     Starting wfcs are    8 randomized atomic wfcs
     Checking if some PAW data can be deallocated... 

     total cpu time spent up to now is        0.5 secs

     Self-consistent Calculation

     iteration #  1     ecut=    30.00 Ry     beta= 0.60
     Davidson diagonalization with overlap
     ethr =  1.00E-02,  avg # of iterations =  2.0

     Threshold (ethr) on eigenvalues was too large:
     Diagonalizing with lowered threshold

     Davidson diagonalization with overlap
     ethr =  6.42E-04,  avg # of iterations =  1.4

     total cpu time spent up to now is        1.2 secs

     total energy              =     -93.45015976 Ry
     estimated scf accuracy    <       0.05562887 Ry

     iteration #  2     ecut=    30.00 Ry     beta= 0.60
     Davidson diagonalization with overlap
     ethr =  6.95E-04,  avg # of iterations =  1.0

     total cpu time spent up to now is        1.5 secs

     total energy              =     -93.45093206 Ry
     estimated scf accuracy    <       0.00622512 Ry

     iteration #  3     ecut=    30.00 Ry     beta= 0.60
     Davidson diagonalization with overlap
     ethr =  7.78E-05,  avg # of iterations =  2.0

     total cpu time spent up to now is        2.0 secs

     total energy              =     -93.45195421 Ry
     estimated scf accuracy    <       0.00015913 Ry

     iteration #  4     ecut=    30.00 Ry     beta= 0.60
     Davidson diagonalization with overlap
     ethr =  1.99E-06,  avg # of iterations =  4.3

     total cpu time spent up to now is        2.5 secs

     total energy              =     -93.45206399 Ry
     estimated scf accuracy    <       0.00002502 Ry

     iteration #  5     ecut=    30.00 Ry     beta= 0.60
     Davidson diagonalization with overlap
     ethr =  3.13E-07,  avg # of iterations =  3.2

     total cpu time spent up to now is        3.0 secs

     End of self-consistent calculation

          k =-0.0833 0.0833 0.0833 (   731 PWs)   bands (ev):

    -5.5996   5.5390   6.2529   6.2529

          k =-0.2500 0.2500-0.0833 (   739 PWs)   bands (ev):

    -5.1136   3.4379   4.9879   6.0424

          k =-0.4167 0.4167-0.2500 (   745 PWs)   bands (ev):

    -3.9970   0.6207   4.5230   5.3922

          k = 0.4167-0.4167 0.5833 (   743 PWs)   bands (ev):

    -3.2769  -0.5532   4.5960   5.0017

          k = 0.2500-0.2500 0.4167 (   742 PWs)   bands (ev):

    -4.4188   1.4850   5.0588   5.1058

          k = 0.0833-0.0833 0.2500 (   731 PWs)   bands (ev):

    -5.3543   4.4666   5.5886   5.7909

          k =-0.0833 0.4167 0.0833 (   736 PWs)   bands (ev):

    -4.8679   3.2673   4.8354   4.8422

          k =-0.2500 0.5833-0.0833 (   737 PWs)   bands (ev):

    -3.9386   1.3988   3.4811   4.4490

          k = 0.5833-0.2500 0.7500 (   733 PWs)   bands (ev):

    -2.7912  -0.4020   2.8750   4.2139

          k = 0.4167-0.0833 0.5833 (   739 PWs)   bands (ev):

    -3.5342   0.6875   2.8225   4.7151

          k = 0.2500 0.0833 0.4167 (   737 PWs)   bands (ev):

    -4.6376   2.4049   4.1947   5.4044

          k =-0.0833 0.7500 0.0833 (   735 PWs)   bands (ev):

    -3.2138   0.5717   3.4405   3.7933

          k = 0.7500-0.0833 0.9167 (   736 PWs)   bands (ev):

    -1.9902  -0.7928   2.5715   3.3719

          k = 0.5833 0.0833 0.7500 (   730 PWs)   bands (ev):

    -2.3629  -0.4631   2.0792   3.9311

          k = 0.4167 0.2500 0.5833 (   737 PWs)   bands (ev):

    -3.4168  -0.0316   3.8009   4.8171

          k =-0.0833-0.9167 0.0833 (   736 PWs)   bands (ev):

    -2.0870  -0.8025   3.1645   3.5739

          k =-0.2500-0.7500-0.0833 (   737 PWs)   bands (ev):

    -3.0399   0.3413   2.9063   3.7195

          k =-0.0833-0.5833 0.0833 (   732 PWs)   bands (ev):

    -4.1492   1.9581   4.0006   4.2235

          k =-0.2500 0.2500 0.2500 (   745 PWs)   bands (ev):

    -4.8793   2.4352   5.6271   5.6271

          k =-0.4167 0.4167 0.0833 (   740 PWs)   bands (ev):

    -4.1859   1.5021   3.4449   5.4567

          k = 0.4167-0.4167 0.9167 (   734 PWs)   bands (ev):

    -2.9784   0.0433   2.3081   4.6497

          k = 0.2500-0.2500 0.7500 (   735 PWs)   bands (ev):

    -2.9264  -0.0369   2.8029   4.1552

          k =-0.2500 0.5833 0.2500 (   738 PWs)   bands (ev):

    -3.7522   0.6746   3.9339   4.5365

          k = 0.5833-0.2500 1.0833 (   732 PWs)   bands (ev):

    -2.7272  -0.0612   2.4088   3.7141

          k = 0.4167-0.0833 0.9167 (   732 PWs)   bands (ev):

    -1.8769  -0.8007   2.2322   3.0276

          k =-0.2500-1.0833 0.2500 (   732 PWs)   bands (ev):

    -2.0912  -0.7120   2.1032   3.9566

          k =-0.4167 0.4167 0.4167 (   739 PWs)   bands (ev):

    -3.6577  -0.1434   5.2339   5.2339

          k = 0.4167-0.4167 1.2500 (   737 PWs)   bands (ev):

    -3.0370  -0.4439   3.3643   4.7804

     highest occupied level (ev):     6.2529

!    total energy              =     -93.45207273 Ry

     total all-electron energy =     -1160.143803 Ry
     estimated scf accuracy    <       0.00000053 Ry

     The total energy is the sum of the following terms:
     one-electron contribution =       5.88427171 Ry
     hartree contribution      =       1.08415432 Ry
     xc contribution           =     -12.33095396 Ry
     ewald contribution        =     -16.89975860 Ry
     one-center paw contrib.   =     -71.18978620 Ry

     convergence has been achieved in   5 iterations

     Writing output data file ././silicon.save/

     init_run     :      0.59s CPU      0.47s WALL (       1 calls)
     electrons    :      3.54s CPU      2.43s WALL (       1 calls)

     Called by init_run:
     wfcinit      :      0.13s CPU      0.08s WALL (       1 calls)
     potinit      :      0.21s CPU      0.21s WALL (       1 calls)
     hinit0       :      0.22s CPU      0.16s WALL (       1 calls)

     Called by electrons:
     c_bands      :      1.55s CPU      0.94s WALL (       6 calls)
     sum_band     :      0.52s CPU      0.29s WALL (       6 calls)
     v_of_rho     :      0.09s CPU      0.05s WALL (       6 calls)
     newd         :      0.05s CPU      0.04s WALL (       6 calls)
     PAW_pot      :      1.54s CPU      1.31s WALL (       6 calls)
     mix_rho      :      0.00s CPU      0.00s WALL (       6 calls)

     Called by c_bands:
     init_us_2    :      0.13s CPU      0.07s WALL (     364 calls)
     cegterg      :      1.06s CPU      0.64s WALL (     168 calls)

     Called by *egterg:
     cdiaghg      :      0.02s CPU      0.01s WALL (     530 calls)
     h_psi        :      1.04s CPU      0.63s WALL (     586 calls)
     s_psi        :      0.03s CPU      0.02s WALL (     586 calls)
     g_psi        :      0.01s CPU      0.01s WALL (     390 calls)

     Called by h_psi:
     h_psi:calbec :      0.06s CPU      0.07s WALL (     586 calls)
     vloc_psi     :      0.94s CPU      0.54s WALL (     586 calls)
     add_vuspsi   :      0.03s CPU      0.02s WALL (     586 calls)

     General routines
     calbec       :      0.11s CPU      0.12s WALL (     754 calls)
     fft          :      0.01s CPU      0.01s WALL (      67 calls)
     ffts         :      0.00s CPU      0.00s WALL (       6 calls)
     fftw         :      0.74s CPU      0.42s WALL (    4954 calls)

     Parallel routines

     PWSCF        :      4.20s CPU      2.98s WALL


   This run was terminated on:  13:42:54  21May2024            

=------------------------------------------------------------------------------=
   JOB DONE.
=------------------------------------------------------------------------------=
