
     Program PWSCF v.6.7MaX starts on 22May2024 at 13: 2:31 

     This program is part of the open-source Quantum ESPRESSO suite
     for quantum simulation of materials; please cite
         "P. Giannozzi et al., J. Phys.:Condens. Matter 21 395502 (2009);
         "P. Giannozzi et al., J. Phys.:Condens. Matter 29 465901 (2017);
          URL http://www.quantum-espresso.org", 
     in publications or presentations arising from this work. More details at
     http://www.quantum-espresso.org/quote

     Parallel version (MPI), running on     1 processors

     MPI processes distributed on     1 nodes
     Waiting for input...
     Reading input from standard input

     Current dimensions of program PWSCF are:
     Max number of different atomic species (ntypx) = 10
     Max number of k-points (npk) =  40000
     Max angular momentum in pseudopotentials (lmaxx) =  3
     file Cu.UPF: wavefunction(s)  4S 3D renormalized
     file Pt.UPF: wavefunction(s)  6S 5D renormalized
     file Ni.UPF: wavefunction(s)  4S 3D renormalized

     Subspace diagonalization in iterative solution of the eigenvalue problem:
     a serial algorithm will be used


     G-vector sticks info
     --------------------
     sticks:   dense  smooth     PW     G-vecs:    dense   smooth      PW
     Sum         859     859    253                16865    16865    2741



     bravais-lattice index     =            2
     lattice parameter (alat)  =      11.2000  a.u.
     unit-cell volume          =     351.2320 (a.u.)^3
     number of atoms/cell      =            3
     number of atomic types    =            3
     number of electrons       =        31.00
     number of Kohn-Sham states=           30
     kinetic-energy cutoff     =      50.0000  Ry
     charge density cutoff     =     200.0000  Ry
     scf convergence threshold =      1.0E-07
     mixing beta               =       0.7000
     number of iterations used =            8  plain     mixing
     Exchange-correlation= SLA  PW   PBX  PBC
                           (   1   4   3   4   0   0   0)

     celldm(1)=  11.200000  celldm(2)=   0.000000  celldm(3)=   0.000000
     celldm(4)=   0.000000  celldm(5)=   0.000000  celldm(6)=   0.000000

     crystal axes: (cart. coord. in units of alat)
               a(1) = (  -0.500000   0.000000   0.500000 )  
               a(2) = (   0.000000   0.500000   0.500000 )  
               a(3) = (  -0.500000   0.500000   0.000000 )  

     reciprocal axes: (cart. coord. in units 2 pi/alat)
               b(1) = ( -1.000000 -1.000000  1.000000 )  
               b(2) = (  1.000000  1.000000  1.000000 )  
               b(3) = ( -1.000000  1.000000 -1.000000 )  


     PseudoPot. # 1 for Cu read from file:
     ././Cu.UPF
     MD5 check sum: cfffd1f38ee05704b3e17f46f1730a6f
     Pseudo is Projector augmented-wave + core cor, Zval = 11.0
     Generated using &quot;atomic&quot; code by A. Dal Corso  v.6.3
     Shape of augmentation charge: PSQ
     Using radial grid of 1199 points,  6 beta functions with: 
                l(1) =   0
                l(2) =   0
                l(3) =   1
                l(4) =   1
                l(5) =   2
                l(6) =   2
     Q(r) pseudized with 0 coefficients 


     PseudoPot. # 2 for Pt read from file:
     ././Pt.UPF
     MD5 check sum: c5224e9cd7a5e36e81f2def9f50bb494
     Pseudo is Projector augmented-wave + core cor, Zval = 10.0
     Generated using &quot;atomic&quot; code by A. Dal Corso  v.6.3
     Shape of augmentation charge: PSQ
     Using radial grid of 1277 points,  6 beta functions with: 
                l(1) =   0
                l(2) =   0
                l(3) =   1
                l(4) =   1
                l(5) =   2
                l(6) =   2
     Q(r) pseudized with 0 coefficients 


     PseudoPot. # 3 for Ni read from file:
     ././Ni.UPF
     MD5 check sum: 5bc40517020091042a126ac2b4ecef1e
     Pseudo is Projector augmented-wave + core cor, Zval = 10.0
     Generated using "atomic" code by A. Dal Corso  v.5.0.2 svn rev. 9415
     Shape of augmentation charge: PSQ
     Using radial grid of 1195 points,  6 beta functions with: 
                l(1) =   0
                l(2) =   0
                l(3) =   1
                l(4) =   1
                l(5) =   2
                l(6) =   2
     Q(r) pseudized with 0 coefficients 


     atomic species   valence    mass     pseudopotential
        Cu            11.00    63.54600     Cu( 1.00)
        Pt            10.00   195.08000     Pt( 1.00)
        Ni            10.00    58.69000     Ni( 1.00)

     24 Sym. Ops. (no inversion) found


                                    s                        frac. trans.

      isym =  1     identity                                     

 cryst.   s( 1) = (     1          0          0      )
                  (     0          1          0      )
                  (     0          0          1      )

 cart.    s( 1) = (  1.0000000  0.0000000  0.0000000 )
                  (  0.0000000  1.0000000  0.0000000 )
                  (  0.0000000  0.0000000  1.0000000 )


      isym =  2     180 deg rotation - cart. axis [0,0,1]        

 cryst.   s( 2) = (     0          1         -1      )
                  (     1          0         -1      )
                  (     0          0         -1      )

 cart.    s( 2) = ( -1.0000000  0.0000000  0.0000000 )
                  (  0.0000000 -1.0000000  0.0000000 )
                  (  0.0000000  0.0000000  1.0000000 )


      isym =  3     180 deg rotation - cart. axis [0,1,0]        

 cryst.   s( 3) = (    -1          0          0      )
                  (    -1          0          1      )
                  (    -1          1          0      )

 cart.    s( 3) = ( -1.0000000  0.0000000  0.0000000 )
                  (  0.0000000  1.0000000  0.0000000 )
                  (  0.0000000  0.0000000 -1.0000000 )


      isym =  4     180 deg rotation - cart. axis [1,0,0]        

 cryst.   s( 4) = (     0         -1          1      )
                  (     0         -1          0      )
                  (     1         -1          0      )

 cart.    s( 4) = (  1.0000000  0.0000000  0.0000000 )
                  (  0.0000000 -1.0000000  0.0000000 )
                  (  0.0000000  0.0000000 -1.0000000 )


      isym =  5     120 deg rotation - cart. axis [-1,-1,-1]     

 cryst.   s( 5) = (    -1          0          1      )
                  (    -1          1          0      )
                  (    -1          0          0      )

 cart.    s( 5) = (  0.0000000  1.0000000  0.0000000 )
                  (  0.0000000  0.0000000  1.0000000 )
                  (  1.0000000  0.0000000  0.0000000 )


      isym =  6     120 deg rotation - cart. axis [-1,1,1]       

 cryst.   s( 6) = (     0          1          0      )
                  (     0          0          1      )
                  (     1          0          0      )

 cart.    s( 6) = (  0.0000000 -1.0000000  0.0000000 )
                  (  0.0000000  0.0000000  1.0000000 )
                  ( -1.0000000  0.0000000  0.0000000 )


      isym =  7     120 deg rotation - cart. axis [1,1,-1]       

 cryst.   s( 7) = (     1          0         -1      )
                  (     0          0         -1      )
                  (     0          1         -1      )

 cart.    s( 7) = (  0.0000000  1.0000000  0.0000000 )
                  (  0.0000000  0.0000000 -1.0000000 )
                  ( -1.0000000  0.0000000  0.0000000 )


      isym =  8     120 deg rotation - cart. axis [1,-1,1]       

 cryst.   s( 8) = (     0         -1          0      )
                  (     1         -1          0      )
                  (     0         -1          1      )

 cart.    s( 8) = (  0.0000000 -1.0000000  0.0000000 )
                  (  0.0000000  0.0000000 -1.0000000 )
                  (  1.0000000  0.0000000  0.0000000 )


      isym =  9     120 deg rotation - cart. axis [1,1,1]        

 cryst.   s( 9) = (     0          0         -1      )
                  (     0          1         -1      )
                  (     1          0         -1      )

 cart.    s( 9) = (  0.0000000  0.0000000  1.0000000 )
                  (  1.0000000  0.0000000  0.0000000 )
                  (  0.0000000  1.0000000  0.0000000 )


      isym = 10     120 deg rotation - cart. axis [-1,1,-1]      

 cryst.   s(10) = (    -1          1          0      )
                  (    -1          0          0      )
                  (    -1          0          1      )

 cart.    s(10) = (  0.0000000  0.0000000  1.0000000 )
                  ( -1.0000000  0.0000000  0.0000000 )
                  (  0.0000000 -1.0000000  0.0000000 )


      isym = 11     120 deg rotation - cart. axis [1,-1,-1]      

 cryst.   s(11) = (     0          0          1      )
                  (     1          0          0      )
                  (     0          1          0      )

 cart.    s(11) = (  0.0000000  0.0000000 -1.0000000 )
                  ( -1.0000000  0.0000000  0.0000000 )
                  (  0.0000000  1.0000000  0.0000000 )


      isym = 12     120 deg rotation - cart. axis [-1,-1,1]      

 cryst.   s(12) = (     1         -1          0      )
                  (     0         -1          1      )
                  (     0         -1          0      )

 cart.    s(12) = (  0.0000000  0.0000000 -1.0000000 )
                  (  1.0000000  0.0000000  0.0000000 )
                  (  0.0000000 -1.0000000  0.0000000 )


      isym = 13     inv. 180 deg rotation - cart. axis [1,1,0]   

 cryst.   s(13) = (     0          1          0      )
                  (     1          0          0      )
                  (     0          0          1      )

 cart.    s(13) = (  0.0000000 -1.0000000  0.0000000 )
                  ( -1.0000000  0.0000000  0.0000000 )
                  (  0.0000000  0.0000000  1.0000000 )


      isym = 14     inv. 180 deg rotation - cart. axis [1,-1,0]  

 cryst.   s(14) = (     1          0         -1      )
                  (     0          1         -1      )
                  (     0          0         -1      )

 cart.    s(14) = (  0.0000000  1.0000000  0.0000000 )
                  (  1.0000000  0.0000000  0.0000000 )
                  (  0.0000000  0.0000000  1.0000000 )


      isym = 15     inv.  90 deg rotation - cart. axis [0,0,-1]  

 cryst.   s(15) = (     0         -1          0      )
                  (     0         -1          1      )
                  (     1         -1          0      )

 cart.    s(15) = (  0.0000000 -1.0000000  0.0000000 )
                  (  1.0000000  0.0000000  0.0000000 )
                  (  0.0000000  0.0000000 -1.0000000 )


      isym = 16     inv.  90 deg rotation - cart. axis [0,0,1]   

 cryst.   s(16) = (    -1          0          1      )
                  (    -1          0          0      )
                  (    -1          1          0      )

 cart.    s(16) = (  0.0000000  1.0000000  0.0000000 )
                  ( -1.0000000  0.0000000  0.0000000 )
                  (  0.0000000  0.0000000 -1.0000000 )


      isym = 17     inv. 180 deg rotation - cart. axis [1,0,1]   

 cryst.   s(17) = (     1          0          0      )
                  (     0          0          1      )
                  (     0          1          0      )

 cart.    s(17) = (  0.0000000  0.0000000 -1.0000000 )
                  (  0.0000000  1.0000000  0.0000000 )
                  ( -1.0000000  0.0000000  0.0000000 )


      isym = 18     inv. 180 deg rotation - cart. axis [-1,0,1]  

 cryst.   s(18) = (    -1          0          0      )
                  (    -1          1          0      )
                  (    -1          0          1      )

 cart.    s(18) = (  0.0000000  0.0000000  1.0000000 )
                  (  0.0000000  1.0000000  0.0000000 )
                  (  1.0000000  0.0000000  0.0000000 )


      isym = 19     inv.  90 deg rotation - cart. axis [0,1,0]   

 cryst.   s(19) = (     0         -1          1      )
                  (     1         -1          0      )
                  (     0         -1          0      )

 cart.    s(19) = (  0.0000000  0.0000000 -1.0000000 )
                  (  0.0000000 -1.0000000  0.0000000 )
                  (  1.0000000  0.0000000  0.0000000 )


      isym = 20     inv.  90 deg rotation - cart. axis [0,-1,0]  

 cryst.   s(20) = (     0          1         -1      )
                  (     0          0         -1      )
                  (     1          0         -1      )

 cart.    s(20) = (  0.0000000  0.0000000  1.0000000 )
                  (  0.0000000 -1.0000000  0.0000000 )
                  ( -1.0000000  0.0000000  0.0000000 )


      isym = 21     inv. 180 deg rotation - cart. axis [0,1,1]   

 cryst.   s(21) = (     1         -1          0      )
                  (     0         -1          0      )
                  (     0         -1          1      )

 cart.    s(21) = (  1.0000000  0.0000000  0.0000000 )
                  (  0.0000000  0.0000000 -1.0000000 )
                  (  0.0000000 -1.0000000  0.0000000 )


      isym = 22     inv. 180 deg rotation - cart. axis [0,1,-1]  

 cryst.   s(22) = (     0          0          1      )
                  (     0          1          0      )
                  (     1          0          0      )

 cart.    s(22) = (  1.0000000  0.0000000  0.0000000 )
                  (  0.0000000  0.0000000  1.0000000 )
                  (  0.0000000  1.0000000  0.0000000 )


      isym = 23     inv.  90 deg rotation - cart. axis [-1,0,0]  

 cryst.   s(23) = (     0          0         -1      )
                  (     1          0         -1      )
                  (     0          1         -1      )

 cart.    s(23) = ( -1.0000000  0.0000000  0.0000000 )
                  (  0.0000000  0.0000000 -1.0000000 )
                  (  0.0000000  1.0000000  0.0000000 )


      isym = 24     inv.  90 deg rotation - cart. axis [1,0,0]   

 cryst.   s(24) = (    -1          1          0      )
                  (    -1          0          1      )
                  (    -1          0          0      )

 cart.    s(24) = ( -1.0000000  0.0000000  0.0000000 )
                  (  0.0000000  0.0000000  1.0000000 )
                  (  0.0000000 -1.0000000  0.0000000 )


     point group T_d (-43m) 
     there are  5 classes
     the character table:

       E     8C3   3C2   6S4   6s_d 
A_1    1.00  1.00  1.00  1.00  1.00
A_2    1.00  1.00  1.00 -1.00 -1.00
E      2.00 -1.00  2.00  0.00  0.00
T_1    3.00  0.00 -1.00  1.00 -1.00
T_2    3.00  0.00 -1.00 -1.00  1.00

     the symmetry operations in each class and the name of the first element:

     E        1
          identity                                               
     8C3      5    7    8    6   12    9   10   11
          120 deg rotation - cart. axis [-1,-1,-1]               
     3C2      2    3    4
          180 deg rotation - cart. axis [0,0,1]                  
     6S4     15   16   20   19   23   24
          inv.  90 deg rotation - cart. axis [0,0,-1]            
     6s_d    13   14   17   18   21   22
          inv. 180 deg rotation - cart. axis [1,1,0]             

   Cartesian axes

     site n.     atom                  positions (alat units)
         1           Cu  tau(   1) = (   0.0000000   0.0000000   0.0000000  )
         2           Pt  tau(   2) = (   0.5000000   0.5000000   0.5000000  )
         3           Ni  tau(   3) = (   0.2500000   0.2500000   0.2500000  )

   Crystallographic axes

     site n.     atom                  positions (cryst. coord.)
         1           Cu  tau(   1) = (  0.0000000  0.0000000  0.0000000  )
         2           Pt  tau(   2) = ( -0.5000000  1.5000000 -0.5000000  )
         3           Ni  tau(   3) = ( -0.2500000  0.7500000 -0.2500000  )

     number of k points=    29  Methfessel-Paxton smearing, width (Ry)=  0.0050
                       cart. coord. in units 2pi/alat
        k(    1) = (   0.0000000   0.0000000   0.0000000), wk =   0.0039062
        k(    2) = (  -0.1250000   0.1250000  -0.1250000), wk =   0.0312500
        k(    3) = (  -0.2500000   0.2500000  -0.2500000), wk =   0.0312500
        k(    4) = (  -0.3750000   0.3750000  -0.3750000), wk =   0.0312500
        k(    5) = (   0.5000000  -0.5000000   0.5000000), wk =   0.0156250
        k(    6) = (   0.0000000   0.2500000   0.0000000), wk =   0.0234375
        k(    7) = (  -0.1250000   0.3750000  -0.1250000), wk =   0.0937500
        k(    8) = (  -0.2500000   0.5000000  -0.2500000), wk =   0.0937500
        k(    9) = (   0.6250000  -0.3750000   0.6250000), wk =   0.0937500
        k(   10) = (   0.5000000  -0.2500000   0.5000000), wk =   0.0937500
        k(   11) = (   0.3750000  -0.1250000   0.3750000), wk =   0.0937500
        k(   12) = (   0.2500000   0.0000000   0.2500000), wk =   0.0468750
        k(   13) = (   0.0000000   0.5000000   0.0000000), wk =   0.0234375
        k(   14) = (  -0.1250000   0.6250000  -0.1250000), wk =   0.0937500
        k(   15) = (   0.7500000  -0.2500000   0.7500000), wk =   0.0937500
        k(   16) = (   0.6250000  -0.1250000   0.6250000), wk =   0.0937500
        k(   17) = (   0.5000000   0.0000000   0.5000000), wk =   0.0468750
        k(   18) = (   0.0000000   0.7500000   0.0000000), wk =   0.0234375
        k(   19) = (   0.8750000  -0.1250000   0.8750000), wk =   0.0937500
        k(   20) = (   0.7500000   0.0000000   0.7500000), wk =   0.0468750
        k(   21) = (   0.0000000  -1.0000000   0.0000000), wk =   0.0117188
        k(   22) = (  -0.2500000   0.5000000   0.0000000), wk =   0.0937500
        k(   23) = (   0.6250000  -0.3750000   0.8750000), wk =   0.1875000
        k(   24) = (   0.5000000  -0.2500000   0.7500000), wk =   0.0937500
        k(   25) = (   0.7500000  -0.2500000   1.0000000), wk =   0.0937500
        k(   26) = (   0.6250000  -0.1250000   0.8750000), wk =   0.1875000
        k(   27) = (   0.5000000   0.0000000   0.7500000), wk =   0.0937500
        k(   28) = (  -0.2500000  -1.0000000   0.0000000), wk =   0.0468750
        k(   29) = (  -0.5000000  -1.0000000   0.0000000), wk =   0.0234375

                       cryst. coord.
        k(    1) = (   0.0000000   0.0000000   0.0000000), wk =   0.0039062
        k(    2) = (   0.0000000   0.0000000   0.1250000), wk =   0.0312500
        k(    3) = (   0.0000000   0.0000000   0.2500000), wk =   0.0312500
        k(    4) = (   0.0000000   0.0000000   0.3750000), wk =   0.0312500
        k(    5) = (   0.0000000   0.0000000  -0.5000000), wk =   0.0156250
        k(    6) = (   0.0000000   0.1250000   0.1250000), wk =   0.0234375
        k(    7) = (   0.0000000   0.1250000   0.2500000), wk =   0.0937500
        k(    8) = (   0.0000000   0.1250000   0.3750000), wk =   0.0937500
        k(    9) = (   0.0000000   0.1250000  -0.5000000), wk =   0.0937500
        k(   10) = (   0.0000000   0.1250000  -0.3750000), wk =   0.0937500
        k(   11) = (   0.0000000   0.1250000  -0.2500000), wk =   0.0937500
        k(   12) = (   0.0000000   0.1250000  -0.1250000), wk =   0.0468750
        k(   13) = (   0.0000000   0.2500000   0.2500000), wk =   0.0234375
        k(   14) = (   0.0000000   0.2500000   0.3750000), wk =   0.0937500
        k(   15) = (   0.0000000   0.2500000  -0.5000000), wk =   0.0937500
        k(   16) = (   0.0000000   0.2500000  -0.3750000), wk =   0.0937500
        k(   17) = (   0.0000000   0.2500000  -0.2500000), wk =   0.0468750
        k(   18) = (   0.0000000   0.3750000   0.3750000), wk =   0.0234375
        k(   19) = (   0.0000000   0.3750000  -0.5000000), wk =   0.0937500
        k(   20) = (   0.0000000   0.3750000  -0.3750000), wk =   0.0468750
        k(   21) = (   0.0000000  -0.5000000  -0.5000000), wk =   0.0117188
        k(   22) = (   0.1250000   0.2500000   0.3750000), wk =   0.0937500
        k(   23) = (   0.1250000   0.2500000  -0.5000000), wk =   0.1875000
        k(   24) = (   0.1250000   0.2500000  -0.3750000), wk =   0.0937500
        k(   25) = (   0.1250000   0.3750000  -0.5000000), wk =   0.0937500
        k(   26) = (   0.1250000   0.3750000  -0.3750000), wk =   0.1875000
        k(   27) = (   0.1250000   0.3750000  -0.2500000), wk =   0.0937500
        k(   28) = (   0.1250000  -0.5000000  -0.3750000), wk =   0.0468750
        k(   29) = (   0.2500000  -0.5000000  -0.2500000), wk =   0.0234375

     Dense  grid:    16865 G-vectors     FFT dimensions: (  36,  36,  36)

     Dynamical RAM for                 wfc:       0.96 MB

     Dynamical RAM for     wfc (w. buffer):      28.80 MB

     Dynamical RAM for           str. fact:       0.77 MB

     Dynamical RAM for           local pot:       0.00 MB

     Dynamical RAM for          nlocal pot:       1.73 MB

     Dynamical RAM for                qrad:       3.41 MB

     Dynamical RAM for          rho,v,vnew:       1.84 MB

     Dynamical RAM for               rhoin:       0.61 MB

     Dynamical RAM for            rho*nmix:       4.12 MB

     Dynamical RAM for           G-vectors:       1.09 MB

     Dynamical RAM for          h,s,v(r/c):       0.16 MB

     Dynamical RAM for          <psi|beta>:       0.02 MB

     Dynamical RAM for                 psi:       1.92 MB

     Dynamical RAM for                hpsi:       1.92 MB

     Dynamical RAM for                spsi:       1.92 MB

     Dynamical RAM for      wfcinit/wfcrot:       1.94 MB

     Dynamical RAM for           addusdens:      48.12 MB

     Estimated static dynamical RAM per process >      45.18 MB

     Estimated max dynamical RAM per process >      93.30 MB

     Check: negative core charge=   -0.000003

     Initial potential from superposition of free atoms

     starting charge   30.99935, renormalised to   31.00000
     Starting wfcs are   27 randomized atomic wfcs +    3 random wfcs
     Checking if some PAW data can be deallocated... 

     total cpu time spent up to now is        2.4 secs

     Self-consistent Calculation

     iteration #  1     ecut=    50.00 Ry     beta= 0.70
     Davidson diagonalization with overlap
     ethr =  1.00E-02,  avg # of iterations =  5.6

     total cpu time spent up to now is        7.1 secs

     total energy              =   -1144.50002409 Ry
     estimated scf accuracy    <       1.95338590 Ry

     iteration #  2     ecut=    50.00 Ry     beta= 0.70
     Davidson diagonalization with overlap
     ethr =  6.30E-03,  avg # of iterations =  2.2

     total cpu time spent up to now is       11.2 secs

     total energy              =   -1142.71449767 Ry
     estimated scf accuracy    <      51.42594643 Ry

     iteration #  3     ecut=    50.00 Ry     beta= 0.70
     Davidson diagonalization with overlap
     ethr =  6.30E-03,  avg # of iterations =  2.0

     total cpu time spent up to now is       15.1 secs

     total energy              =   -1145.92872131 Ry
     estimated scf accuracy    <       0.59590228 Ry

     iteration #  4     ecut=    50.00 Ry     beta= 0.70
     Davidson diagonalization with overlap
     ethr =  1.92E-03,  avg # of iterations =  1.2

     total cpu time spent up to now is       18.5 secs

     total energy              =   -1145.99692133 Ry
     estimated scf accuracy    <       0.15303770 Ry

     iteration #  5     ecut=    50.00 Ry     beta= 0.70
     Davidson diagonalization with overlap
     ethr =  4.94E-04,  avg # of iterations =  1.4

     total cpu time spent up to now is       22.2 secs

     total energy              =   -1145.99959125 Ry
     estimated scf accuracy    <       0.04623333 Ry

     iteration #  6     ecut=    50.00 Ry     beta= 0.70
     Davidson diagonalization with overlap
     ethr =  1.49E-04,  avg # of iterations =  2.3

     total cpu time spent up to now is       26.7 secs

     total energy              =   -1146.00306857 Ry
     estimated scf accuracy    <       0.00203262 Ry

     iteration #  7     ecut=    50.00 Ry     beta= 0.70
     Davidson diagonalization with overlap
     c_bands:  1 eigenvalues not converged
     ethr =  6.56E-06,  avg # of iterations =  8.2

     total cpu time spent up to now is       35.8 secs

     total energy              =   -1146.00374866 Ry
     estimated scf accuracy    <       0.00239231 Ry

     iteration #  8     ecut=    50.00 Ry     beta= 0.70
     Davidson diagonalization with overlap
     ethr =  6.56E-06,  avg # of iterations =  1.2

     total cpu time spent up to now is       40.1 secs

     total energy              =   -1146.00392015 Ry
     estimated scf accuracy    <       0.00003872 Ry

     iteration #  9     ecut=    50.00 Ry     beta= 0.70
     Davidson diagonalization with overlap
     ethr =  1.25E-07,  avg # of iterations =  4.0

     total cpu time spent up to now is       45.3 secs

     total energy              =   -1146.00393435 Ry
     estimated scf accuracy    <       0.00001396 Ry

     iteration # 10     ecut=    50.00 Ry     beta= 0.70
     Davidson diagonalization with overlap
     ethr =  4.50E-08,  avg # of iterations =  1.4

     total cpu time spent up to now is       49.6 secs

     total energy              =   -1146.00393422 Ry
     estimated scf accuracy    <       0.00000412 Ry

     iteration # 11     ecut=    50.00 Ry     beta= 0.70
     Davidson diagonalization with overlap
     ethr =  1.33E-08,  avg # of iterations =  2.1

     total cpu time spent up to now is       53.5 secs

     End of self-consistent calculation

          k = 0.0000 0.0000 0.0000 (  2085 PWs)   bands (ev):

     2.0476   5.6922   5.6922   6.0643   6.0643   6.0643   7.1145   7.1145
     7.1145   8.2636   8.2636   8.5240   8.5240   8.5240   8.9820   8.9820
    16.3400  16.3400  16.3400  17.4845  18.5471  18.7781  18.7781  18.7781
    21.2246  21.2246  21.2246  25.3901  25.5237  25.5237

     occupation numbers 
     1.0000   1.0000   1.0000   1.0000   1.0000   1.0000   1.0000   1.0000
     1.0000   1.0000   1.0000   1.0000   1.0000   1.0000   1.0223   1.0223
    -0.0000  -0.0000  -0.0000  -0.0000  -0.0000  -0.0000  -0.0000  -0.0000
    -0.0000  -0.0000  -0.0000  -0.0000  -0.0000  -0.0000

          k =-0.1250 0.1250-0.1250 (  2094 PWs)   bands (ev):

     2.2671   5.7500   5.7500   6.0253   6.1193   6.1193   7.0928   7.0928
     7.1734   8.1690   8.1690   8.3321   8.5022   8.5022   8.9942   8.9942
    14.4093  16.2254  16.2254  17.6580  18.7264  18.7264  18.8470  19.4713
    21.2772  21.2772  22.2034  26.2077  26.2077  26.5697

     occupation numbers 
     1.0000   1.0000   1.0000   1.0000   1.0000   1.0000   1.0000   1.0000
     1.0000   1.0000   1.0000   1.0000   1.0000   1.0000   1.0304   1.0304
    -0.0000  -0.0000  -0.0000  -0.0000  -0.0000  -0.0000  -0.0000  -0.0000
    -0.0000  -0.0000  -0.0000  -0.0000  -0.0000  -0.0000

          k =-0.2500 0.2500-0.2500 (  2091 PWs)   bands (ev):

     2.8987   5.9123   5.9123   5.9751   6.2558   6.2558   7.0421   7.0421
     7.2493   7.8560   7.8983   7.8983   8.5007   8.5007   8.9919   8.9919
    12.0362  15.9739  15.9739  17.1900  18.3952  18.3952  18.9700  20.6555
    21.9522  21.9522  25.1150  27.7545  27.7546  29.2012

     occupation numbers 
     1.0000   1.0000   1.0000   1.0000   1.0000   1.0000   1.0000   1.0000
     1.0000   1.0000   1.0000   1.0000   1.0000   1.0000   1.0289   1.0289
    -0.0000  -0.0000  -0.0000  -0.0000  -0.0000  -0.0000  -0.0000  -0.0000
    -0.0000  -0.0000  -0.0000  -0.0000  -0.0000  -0.0000

          k =-0.3750 0.3750-0.3750 (  2093 PWs)   bands (ev):

     3.8198   5.9654   6.1261   6.1261   6.4001   6.4001   6.9186   7.0026
     7.0026   7.5647   7.5647   7.5757   8.5333   8.5333   8.9550   8.9550
    10.2304  15.7298  15.7298  16.8847  18.0168  18.0168  18.6654  22.8038
    23.2895  23.2895  28.0303  28.0305  28.0794  29.6415

     occupation numbers 
     1.0000   1.0000   1.0000   1.0000   1.0000   1.0000   1.0000   1.0000
     1.0000   1.0000   1.0000   1.0000   1.0000   1.0000   1.0077   1.0077
    -0.0000  -0.0000  -0.0000  -0.0000  -0.0000  -0.0000  -0.0000  -0.0000
    -0.0000  -0.0000  -0.0000  -0.0000  -0.0000  -0.0000

          k = 0.5000-0.5000 0.5000 (  2120 PWs)   bands (ev):

     4.4641   5.8900   6.2422   6.2422   6.4638   6.4638   6.5219   7.0035
     7.0035   7.3812   7.3812   7.5668   8.5569   8.5569   8.9278   8.9278
     9.5347  15.6260  15.6260  16.7779  17.8727  17.8727  18.5614  24.3877
    24.3877  24.8115  26.4722  26.7238  26.7238  31.5527

     occupation numbers 
     1.0000   1.0000   1.0000   1.0000   1.0000   1.0000   1.0000   1.0000
     1.0000   1.0000   1.0000   1.0000   1.0000   1.0000   1.0017   1.0017
    -0.0000  -0.0000  -0.0000  -0.0000  -0.0000  -0.0000  -0.0000  -0.0000
    -0.0000  -0.0000  -0.0000  -0.0000  -0.0000  -0.0000

          k = 0.0000 0.2500 0.0000 (  2093 PWs)   bands (ev):

     2.3389   5.7446   5.7771   5.9871   6.1490   6.1490   7.0137   7.1702
     7.1702   8.0461   8.2531   8.4473   8.4474   8.4474   8.9148   9.0385
    15.2582  15.2582  15.2640  17.0055  18.5152  19.5287  19.5287  19.6691
    21.3318  22.2034  22.2034  25.4956  25.4963  28.0758

     occupation numbers 
     1.0000   1.0000   1.0000   1.0000   1.0000   1.0000   1.0000   1.0000
     1.0000   1.0000   1.0000   1.0000   1.0000   1.0000   1.0007   0.9863
    -0.0000  -0.0000  -0.0000  -0.0000  -0.0000  -0.0000  -0.0000  -0.0000
    -0.0000  -0.0000  -0.0000  -0.0000  -0.0000  -0.0000

          k =-0.1250 0.3750-0.1250 (  2083 PWs)   bands (ev):

     2.8293   5.7951   5.9082   5.9481   6.2579   6.2807   6.8665   7.2000
     7.2424   7.8556   8.0840   8.1473   8.4509   8.4915   8.8664   9.0558
    12.8854  14.5937  15.5891  16.3458  18.4390  19.4660  19.8273  20.8020
    22.0939  23.0008  24.2197  26.2016  26.6771  30.2411

     occupation numbers 
     1.0000   1.0000   1.0000   1.0000   1.0000   1.0000   1.0000   1.0000
     1.0000   1.0000   1.0000   1.0000   1.0000   1.0000   1.0000   0.8867
    -0.0000  -0.0000  -0.0000  -0.0000  -0.0000  -0.0000  -0.0000  -0.0000
    -0.0000  -0.0000  -0.0000  -0.0000  -0.0000  -0.0000

          k =-0.2500 0.5000-0.2500 (  2102 PWs)   bands (ev):

     3.6567   5.8112   6.0000   6.0996   6.3913   6.4799   6.7524   7.1774
     7.1915   7.6292   7.7302   7.8014   8.5058   8.5166   8.8588   9.0355
    10.7855  14.3428  14.8013  16.4141  18.7671  19.5529  20.0243  20.7392
    23.7654  24.0787  27.0812  27.1252  28.4968  29.4441

     occupation numbers 
     1.0000   1.0000   1.0000   1.0000   1.0000   1.0000   1.0000   1.0000
     1.0000   1.0000   1.0000   1.0000   1.0000   1.0000   1.0000   0.9972
    -0.0000  -0.0000  -0.0000  -0.0000  -0.0000  -0.0000  -0.0000  -0.0000
    -0.0000  -0.0000  -0.0000  -0.0000  -0.0000  -0.0000

          k = 0.6250-0.3750 0.6250 (  2092 PWs)   bands (ev):

     4.5035   5.6759   6.0977   6.2364   6.4565   6.5182   6.8718   7.0070
     7.1095   7.3909   7.4696   7.6669   8.5118   8.5655   8.9329   8.9521
     9.5942  14.0772  14.5648  16.4937  18.6632  19.0954  20.3522  22.2408
    24.5277  24.9862  26.5849  26.6932  29.0826  30.1838

     occupation numbers 
     1.0000   1.0000   1.0000   1.0000   1.0000   1.0000   1.0000   1.0000
     1.0000   1.0000   1.0000   1.0000   1.0000   1.0000   1.0023   1.0067
    -0.0000  -0.0000  -0.0000  -0.0000  -0.0000  -0.0000  -0.0000  -0.0000
    -0.0000  -0.0000  -0.0000  -0.0000  -0.0000  -0.0000

          k = 0.5000-0.2500 0.5000 (  2098 PWs)   bands (ev):

     4.2656   5.7724   6.1130   6.1991   6.4893   6.5343   6.7734   6.9376
     7.1592   7.4151   7.5074   7.7176   8.4924   8.5881   8.8421   9.0327
     9.8854  13.6662  15.2525  16.7314  18.5468  18.6664  20.5529  22.6565
    22.8695  24.6780  26.9677  28.1534  28.4577  29.6515

     occupation numbers 
     1.0000   1.0000   1.0000   1.0000   1.0000   1.0000   1.0000   1.0000
     1.0000   1.0000   1.0000   1.0000   1.0000   1.0000   1.0000   1.0061
    -0.0000  -0.0000  -0.0000  -0.0000  -0.0000  -0.0000  -0.0000  -0.0000
    -0.0000  -0.0000  -0.0000  -0.0000  -0.0000  -0.0000

          k = 0.3750-0.1250 0.3750 (  2094 PWs)   bands (ev):

     3.3552   5.8772   5.9764   6.0168   6.3755   6.4215   6.8999   7.0201
     7.2175   7.6895   7.7073   7.9455   8.4889   8.5364   8.8204   9.0827
    11.4553  13.6510  16.3040  17.2268  18.1877  18.5327  20.0957  21.3792
    21.4277  24.6210  25.9553  26.9674  28.1681  29.6722

     occupation numbers 
     1.0000   1.0000   1.0000   1.0000   1.0000   1.0000   1.0000   1.0000
     1.0000   1.0000   1.0000   1.0000   1.0000   1.0000   1.0000   0.6129
    -0.0000  -0.0000  -0.0000  -0.0000  -0.0000  -0.0000  -0.0000  -0.0000
    -0.0000  -0.0000  -0.0000  -0.0000  -0.0000  -0.0000

          k = 0.2500 0.0000 0.2500 (  2079 PWs)   bands (ev):

     2.6232   5.8348   5.8369   5.9506   6.2016   6.2403   6.9873   7.1576
     7.1921   7.9689   7.9961   8.2275   8.4655   8.5016   8.8971   9.0653
    13.4485  14.2795  17.1951  17.7080  17.9805  18.4295  18.9974  20.8132
    20.8173  23.0096  23.6078  25.5288  27.7680  28.4722

     occupation numbers 
     1.0000   1.0000   1.0000   1.0000   1.0000   1.0000   1.0000   1.0000
     1.0000   1.0000   1.0000   1.0000   1.0000   1.0000   1.0002   0.8049
    -0.0000  -0.0000  -0.0000  -0.0000  -0.0000  -0.0000  -0.0000  -0.0000
    -0.0000  -0.0000  -0.0000  -0.0000  -0.0000  -0.0000

          k = 0.0000 0.5000 0.0000 (  2085 PWs)   bands (ev):

     3.1565   5.6669   5.9253   6.0041   6.3337   6.3337   6.6705   7.3110
     7.3110   7.8326   8.2171   8.3732   8.3732   8.3842   8.7414   9.0493
    13.5025  13.5025  14.1061  14.6532  17.8143  21.0135  21.0135  22.8738
    23.4029  24.2857  24.2857  25.4233  25.7008  30.8883

     occupation numbers 
     1.0000   1.0000   1.0000   1.0000   1.0000   1.0000   1.0000   1.0000
     1.0000   1.0000   1.0000   1.0000   1.0000   1.0000   1.0000   0.9316
    -0.0000  -0.0000  -0.0000  -0.0000  -0.0000  -0.0000  -0.0000  -0.0000
    -0.0000  -0.0000  -0.0000  -0.0000  -0.0000  -0.0000

          k =-0.1250 0.6250-0.1250 (  2095 PWs)   bands (ev):

     3.8171   5.6009   5.8311   6.1570   6.4407   6.4506   6.6414   7.3196
     7.3420   7.7851   8.0092   8.1699   8.4352   8.5137   8.7532   9.0568
    11.5279  12.9315  13.0374  15.2631  18.1162  21.1647  21.4176  23.3724
    24.8221  25.1509  26.0314  26.1437  27.4282  29.3580

     occupation numbers 
     1.0000   1.0000   1.0000   1.0000   1.0000   1.0000   1.0000   1.0000
     1.0000   1.0000   1.0000   1.0000   1.0000   1.0000   1.0000   0.8787
    -0.0000  -0.0000  -0.0000  -0.0000  -0.0000  -0.0000  -0.0000  -0.0000
    -0.0000  -0.0000  -0.0000  -0.0000  -0.0000  -0.0000

          k = 0.7500-0.2500 0.7500 (  2101 PWs)   bands (ev):

     4.6211   5.4848   5.8126   6.2583   6.3713   6.6074   6.8781   7.2265
     7.4357   7.6219   7.6610   8.0064   8.3957   8.6411   8.9499   9.0436
     9.8177  12.1230  13.0331  15.8349  19.4482  20.8350  21.1256  23.1523
    24.8352  25.3051  26.7215  27.0572  28.9220  29.9902

     occupation numbers 
     1.0000   1.0000   1.0000   1.0000   1.0000   1.0000   1.0000   1.0000
     1.0000   1.0000   1.0000   1.0000   1.0000   1.0000   1.0060   0.9635
    -0.0000  -0.0000  -0.0000  -0.0000  -0.0000  -0.0000  -0.0000  -0.0000
    -0.0000  -0.0000  -0.0000  -0.0000  -0.0000  -0.0000

          k = 0.6250-0.1250 0.6250 (  2102 PWs)   bands (ev):

     4.8253   5.5020   5.9819   6.2260   6.2597   6.7312   6.9850   7.1041
     7.2723   7.4383   7.6523   7.8602   8.4016   8.5956   8.9493   9.0847
     9.7468  11.5383  13.7785  16.1885  20.1146  20.6682  21.6501  22.5321
    22.8030  24.0925  27.4282  28.5054  29.5783  30.1662

     occupation numbers 
     1.0000   1.0000   1.0000   1.0000   1.0000   1.0000   1.0000   1.0000
     1.0000   1.0000   1.0000   1.0000   1.0000   1.0000   1.0058   0.5897
    -0.0000  -0.0000  -0.0000  -0.0000  -0.0000  -0.0000  -0.0000  -0.0000
    -0.0000  -0.0000  -0.0000  -0.0000  -0.0000  -0.0000

          k = 0.5000 0.0000 0.5000 (  2099 PWs)   bands (ev):

     4.0987   5.7575   5.9897   6.1667   6.4756   6.6132   6.8561   6.8893
     7.2472   7.4467   7.6392   7.9413   8.4446   8.6033   8.7534   9.1205
    11.0339  11.6166  14.9742  16.6173  19.7518  19.8381  20.3321  21.4425
    23.4246  24.5629  26.0569  28.1463  28.5548  30.1660

     occupation numbers 
     1.0000   1.0000   1.0000   1.0000   1.0000   1.0000   1.0000   1.0000
     1.0000   1.0000   1.0000   1.0000   1.0000   1.0000   1.0000   0.1769
    -0.0000  -0.0000  -0.0000  -0.0000  -0.0000  -0.0000  -0.0000  -0.0000
    -0.0000  -0.0000  -0.0000  -0.0000  -0.0000  -0.0000

          k = 0.0000 0.7500 0.0000 (  2104 PWs)   bands (ev):

     4.2365   5.4206   5.7198   6.2780   6.4851   6.4851   6.6469   7.3628
     7.3628   7.8759   8.1400   8.2932   8.5614   8.6685   8.6685   9.1001
    11.4589  11.9378  11.9378  14.3241  17.5181  23.0041  23.0041  25.3423
    25.4577  26.0916  26.3767  26.3767  27.0515  29.2262

     occupation numbers 
     1.0000   1.0000   1.0000   1.0000   1.0000   1.0000   1.0000   1.0000
     1.0000   1.0000   1.0000   1.0000   1.0000   1.0000   1.0000   0.3984
    -0.0000  -0.0000  -0.0000  -0.0000  -0.0000  -0.0000  -0.0000  -0.0000
    -0.0000  -0.0000  -0.0000  -0.0000  -0.0000  -0.0000

          k = 0.8750-0.1250 0.8750 (  2101 PWs)   bands (ev):

     4.7529   5.3072   5.7212   6.3355   6.4036   6.6049   6.7949   7.2858
     7.4805   7.8562   8.0359   8.2161   8.3288   8.9301   8.9897   9.2432
    10.2606  10.8222  11.7467  14.9616  17.9171  23.0733  23.2909  25.0419
    25.1091  26.3769  26.9662  27.4379  28.5472  28.8175

     occupation numbers 
     1.0000   1.0000   1.0000   1.0000   1.0000   1.0000   1.0000   1.0000
     1.0000   1.0000   1.0000   1.0000   1.0000   1.0020   1.0276  -0.0036
    -0.0000  -0.0000  -0.0000  -0.0000  -0.0000  -0.0000  -0.0000  -0.0000
    -0.0000  -0.0000  -0.0000  -0.0000  -0.0000  -0.0000

          k = 0.7500 0.0000 0.7500 (  2097 PWs)   bands (ev):

     5.1553   5.2399   5.8363   6.1489   6.3033   6.7786   6.9181   7.1485
     7.6222   7.7140   7.8127   8.0875   8.3018   8.9748   9.0970   9.1160
     9.8086  10.1502  12.4872  15.6901  19.3665  22.4438  22.7810  22.8573
    23.1461  26.6727  26.9182  28.1210  29.0631  30.1246

     occupation numbers 
     1.0000   1.0000   1.0000   1.0000   1.0000   1.0000   1.0000   1.0000
     1.0000   1.0000   1.0000   1.0000   1.0000   1.0176   0.4369   0.2199
    -0.0000  -0.0000  -0.0000  -0.0000  -0.0000  -0.0000  -0.0000  -0.0000
    -0.0000  -0.0000  -0.0000  -0.0000  -0.0000  -0.0000

          k = 0.0000-1.0000 0.0000 (  2100 PWs)   bands (ev):

     4.8188   5.1789   5.7558   6.4144   6.5399   6.5399   6.7712   7.3360
     7.3360   7.9398   8.0774   8.2207   8.4944   9.0467   9.0467   9.5106
     9.8144  11.1554  11.1554  14.2607  17.4395  24.6952  24.6952  25.3053
    25.9482  26.4624  26.4624  27.3023  28.3454  28.3456

     occupation numbers 
     1.0000   1.0000   1.0000   1.0000   1.0000   1.0000   1.0000   1.0000
     1.0000   1.0000   1.0000   1.0000   1.0000   0.9471   0.9471  -0.0000
    -0.0000  -0.0000  -0.0000  -0.0000  -0.0000  -0.0000  -0.0000  -0.0000
    -0.0000  -0.0000  -0.0000  -0.0000  -0.0000  -0.0000

          k =-0.2500 0.5000 0.0000 (  2088 PWs)   bands (ev):

     3.4147   5.7512   5.9133   6.0752   6.3811   6.4376   6.7039   7.2099
     7.2738   7.7617   7.8414   8.0838   8.4658   8.5218   8.7632   9.0817
    12.1100  12.7711  14.7512  16.6470  18.5710  19.0782  20.9813  21.8058
    22.7103  25.0519  25.8106  25.9513  27.5304  29.4220

     occupation numbers 
     1.0000   1.0000   1.0000   1.0000   1.0000   1.0000   1.0000   1.0000
     1.0000   1.0000   1.0000   1.0000   1.0000   1.0000   1.0000   0.6253
    -0.0000  -0.0000  -0.0000  -0.0000  -0.0000  -0.0000  -0.0000  -0.0000
    -0.0000  -0.0000  -0.0000  -0.0000  -0.0000  -0.0000

          k = 0.6250-0.3750 0.8750 (  2095 PWs)   bands (ev):

     4.2440   5.6793   5.8815   6.2424   6.4754   6.5146   6.8231   7.1081
     7.3097   7.5030   7.6427   7.9430   8.4244   8.6164   8.8123   9.0812
    10.4013  12.3889  13.7181  17.2582  18.3900  19.8444  21.3305  22.4187
    23.7148  24.7561  26.7782  27.5213  28.6732  29.5449

     occupation numbers 
     1.0000   1.0000   1.0000   1.0000   1.0000   1.0000   1.0000   1.0000
     1.0000   1.0000   1.0000   1.0000   1.0000   1.0000   1.0000   0.6319
    -0.0000  -0.0000  -0.0000  -0.0000  -0.0000  -0.0000  -0.0000  -0.0000
    -0.0000  -0.0000  -0.0000  -0.0000  -0.0000  -0.0000

          k = 0.5000-0.2500 0.7500 (  2092 PWs)   bands (ev):

     4.8349   5.4564   5.9524   6.2251   6.4731   6.5730   7.0141   7.0511
     7.2685   7.4010   7.6433   7.8005   8.4012   8.6912   8.9198   9.0449
     9.4877  12.5307  13.1636  17.3772  18.1803  21.1596  21.5773  22.3394
    22.8910  25.2662  26.3677  29.1796  29.3266  29.6669

     occupation numbers 
     1.0000   1.0000   1.0000   1.0000   1.0000   1.0000   1.0000   1.0000
     1.0000   1.0000   1.0000   1.0000   1.0000   1.0000   1.0010   0.9569
    -0.0000  -0.0000  -0.0000  -0.0000  -0.0000  -0.0000  -0.0000  -0.0000
    -0.0000  -0.0000  -0.0000  -0.0000  -0.0000  -0.0000

          k = 0.7500-0.2500 1.0000 (  2101 PWs)   bands (ev):

     4.4456   5.5078   5.7096   6.2631   6.4224   6.5788   6.7656   7.2848
     7.4249   7.7609   7.8656   8.1399   8.3464   8.7187   8.8704   9.1059
    10.9332  11.4174  12.0647  15.9787  18.3173  20.6409  23.2230  24.2500
    25.0163  25.2828  26.1275  27.5984  28.2702  29.3288

     occupation numbers 
     1.0000   1.0000   1.0000   1.0000   1.0000   1.0000   1.0000   1.0000
     1.0000   1.0000   1.0000   1.0000   1.0000   1.0000   1.0000   0.3300
    -0.0000  -0.0000  -0.0000  -0.0000  -0.0000  -0.0000  -0.0000  -0.0000
    -0.0000  -0.0000  -0.0000  -0.0000  -0.0000  -0.0000

          k = 0.6250-0.1250 0.8750 (  2110 PWs)   bands (ev):

     5.0455   5.3636   5.7772   6.1201   6.4480   6.7408   6.9049   7.1855
     7.4289   7.6754   7.7577   8.0797   8.2938   8.9621   9.0872   9.2216
     9.6293  10.9392  11.7623  16.9014  19.4762  20.0644  22.1804  23.6221
    25.1775  25.7910  26.5771  28.1825  28.9085  29.2486

     occupation numbers 
     1.0000   1.0000   1.0000   1.0000   1.0000   1.0000   1.0000   1.0000
     1.0000   1.0000   1.0000   1.0000   1.0000   1.0106   0.5579  -0.0107
    -0.0000  -0.0000  -0.0000  -0.0000  -0.0000  -0.0000  -0.0000  -0.0000
    -0.0000  -0.0000  -0.0000  -0.0000  -0.0000  -0.0000

          k = 0.5000 0.0000 0.7500 (  2107 PWs)   bands (ev):

     4.8931   5.4965   5.8335   6.1268   6.4909   6.7089   6.9418   7.0896
     7.2710   7.6224   7.6917   8.0017   8.3273   8.7376   8.9727   9.1311
    10.2979  10.6250  12.5728  17.5155  19.0353  20.3140  21.7735  23.2421
    23.7110  25.4852  26.2281  28.7615  29.0030  30.4280

     occupation numbers 
     1.0000   1.0000   1.0000   1.0000   1.0000   1.0000   1.0000   1.0000
     1.0000   1.0000   1.0000   1.0000   1.0000   1.0000   1.0163   0.0910
    -0.0000  -0.0000  -0.0000  -0.0000  -0.0000  -0.0000  -0.0000  -0.0000
    -0.0000  -0.0000  -0.0000  -0.0000  -0.0000  -0.0000

          k =-0.2500-1.0000 0.0000 (  2110 PWs)   bands (ev):

     4.9962   5.2731   5.7597   6.2235   6.3849   6.7178   6.8293   7.2725
     7.6037   7.8333   7.9287   8.1017   8.2650   9.0645   9.1300   9.6112
     9.7722  10.7766  10.7779  15.7803  18.2214  22.2516  22.8532  25.1451
    25.7308  26.2155  27.4404  27.7831  28.4137  28.4765

     occupation numbers 
     1.0000   1.0000   1.0000   1.0000   1.0000   1.0000   1.0000   1.0000
     1.0000   1.0000   1.0000   1.0000   1.0000   0.8123   0.0991  -0.0000
    -0.0000  -0.0000  -0.0000  -0.0000  -0.0000  -0.0000  -0.0000  -0.0000
    -0.0000  -0.0000  -0.0000  -0.0000  -0.0000  -0.0000

          k =-0.5000-1.0000 0.0000 (  2120 PWs)   bands (ev):

     5.1953   5.4205   5.7699   5.9392   6.6549   6.7515   6.8760   7.2137
     7.2283   7.7127   7.8135   8.1367   8.2662   9.0716   9.2026   9.7341
     9.9204  10.2059  10.5968  18.7479  18.8136  19.9382  20.4505  25.7063
    25.9389  26.2104  27.2623  27.3237  27.6954  28.5897

     occupation numbers 
     1.0000   1.0000   1.0000   1.0000   1.0000   1.0000   1.0000   1.0000
     1.0000   1.0000   1.0000   1.0000   1.0000   0.7406  -0.0218  -0.0000
    -0.0000  -0.0000  -0.0000  -0.0000  -0.0000  -0.0000  -0.0000  -0.0000
    -0.0000  -0.0000  -0.0000  -0.0000  -0.0000  -0.0000

     the Fermi energy is     9.0919 ev

!    total energy              =   -1146.00393468 Ry

     total all-electron energy =    -43178.963314 Ry
     estimated scf accuracy    <       0.00000008 Ry
     smearing contrib. (-TS)   =      -0.00051247 Ry
     internal energy E=F+TS    =   -1146.00342221 Ry

     The total energy is F=E-TS. E is the sum of the following terms:
     one-electron contribution =     -67.21680466 Ry
     hartree contribution      =      73.60617765 Ry
     xc contribution           =    -109.94013108 Ry
     ewald contribution        =    -182.88348822 Ry
     one-center paw contrib.   =    -859.56917590 Ry
      -> PAW hartree energy AE =     223.66904486 Ry
      -> PAW hartree energy PS =    -222.56094597 Ry
      -> PAW xc energy AE      =    -970.07361424 Ry
      -> PAW xc energy PS      =     109.39633945 Ry
      -> total E_H with PAW    =      74.71427654 Ry
      -> total E_XC with PAW   =    -970.61740587 Ry

     convergence has been achieved in  11 iterations

     Writing output data file ././CuPtNi.save/

     init_run     :      2.88s CPU      2.15s WALL (       1 calls)
     electrons    :     73.71s CPU     51.19s WALL (       1 calls)

     Called by init_run:
     wfcinit      :      1.69s CPU      1.03s WALL (       1 calls)
     wfcinit:atom :      0.04s CPU      0.02s WALL (      29 calls)
     wfcinit:wfcr :      1.55s CPU      0.97s WALL (      29 calls)
     potinit      :      0.34s CPU      0.35s WALL (       1 calls)
     hinit0       :      0.69s CPU      0.65s WALL (       1 calls)

     Called by electrons:
     c_bands      :     55.55s CPU     37.07s WALL (      11 calls)
     sum_band     :     12.36s CPU      8.55s WALL (      11 calls)
     v_of_rho     :      0.38s CPU      0.28s WALL (      12 calls)
     v_h          :      0.02s CPU      0.01s WALL (      12 calls)
     v_xc         :      0.36s CPU      0.27s WALL (      12 calls)
     newd         :      1.29s CPU      1.27s WALL (      12 calls)
     PAW_pot      :      4.44s CPU      4.32s WALL (      12 calls)
     mix_rho      :      0.06s CPU      0.04s WALL (      11 calls)

     Called by c_bands:
     init_us_2    :      1.35s CPU      0.73s WALL (     667 calls)
     cegterg      :     50.83s CPU     34.08s WALL (     319 calls)

     Called by sum_band:
     sum_band:wei :      0.04s CPU      0.01s WALL (      11 calls)
     sum_band:loo :      9.89s CPU      6.93s WALL (      11 calls)
     sum_band:buf :      0.08s CPU      0.05s WALL (     319 calls)
     sum_band:ini :      0.59s CPU      0.35s WALL (     319 calls)
     sum_band:cal :      0.51s CPU      0.59s WALL (     319 calls)
     sum_band:bec :      0.01s CPU      0.01s WALL (     319 calls)
     addusdens    :      2.37s CPU      1.57s WALL (      11 calls)
     addusd:skk   :      0.00s CPU      0.00s WALL (      33 calls)
     addusd:dgemm :      1.24s CPU      0.69s WALL (      33 calls)
     addusd:qvan2 :      0.97s CPU      0.70s WALL (      33 calls)

     Called by *egterg:
     cdiaghg      :      2.73s CPU      1.58s WALL (    1235 calls)
     cegterg:over :      1.48s CPU      0.94s WALL (     916 calls)
     cegterg:upda :      1.30s CPU      0.87s WALL (     916 calls)
     cegterg:last :      1.70s CPU      0.87s WALL (     571 calls)
     h_psi        :     42.65s CPU     29.40s WALL (    1264 calls)
     s_psi        :      1.03s CPU      0.66s WALL (    1264 calls)
     g_psi        :      0.43s CPU      0.17s WALL (     916 calls)

     Called by h_psi:
     h_psi:calbec :      1.70s CPU      2.01s WALL (    1264 calls)
     vloc_psi     :     39.57s CPU     26.46s WALL (    1264 calls)
     add_vuspsi   :      1.07s CPU      0.76s WALL (    1264 calls)

     General routines
     calbec       :      2.20s CPU      2.60s WALL (    1583 calls)
     fft          :      0.17s CPU      0.12s WALL (     132 calls)
     ffts         :      0.02s CPU      0.01s WALL (      11 calls)
     fftw         :     41.51s CPU     27.86s WALL (   56328 calls)

     Parallel routines

     PAW routines
     PAW_pot      :      4.44s CPU      4.32s WALL (      12 calls)
     PAW_symme    :      0.01s CPU      0.01s WALL (      23 calls)

     PWSCF        :   1m16.81s CPU     53.64s WALL


   This run was terminated on:  13: 3:25  22May2024            

=------------------------------------------------------------------------------=
   JOB DONE.
=------------------------------------------------------------------------------=
