
     Program PWSCF v.6.7MaX starts on 22May2024 at 13: 0:11 

     This program is part of the open-source Quantum ESPRESSO suite
     for quantum simulation of materials; please cite
         "P. Giannozzi et al., J. Phys.:Condens. Matter 21 395502 (2009);
         "P. Giannozzi et al., J. Phys.:Condens. Matter 29 465901 (2017);
          URL http://www.quantum-espresso.org", 
     in publications or presentations arising from this work. More details at
     http://www.quantum-espresso.org/quote

     Parallel version (MPI), running on     1 processors

     MPI processes distributed on     1 nodes
     Waiting for input...
     Reading input from standard input

     Current dimensions of program PWSCF are:
     Max number of different atomic species (ntypx) = 10
     Max number of k-points (npk) =  40000
     Max angular momentum in pseudopotentials (lmaxx) =  3
     file Cu.UPF: wavefunction(s)  4S 3D renormalized
     file Pt.UPF: wavefunction(s)  6S 5D renormalized
     file Ni.UPF: wavefunction(s)  4S 3D renormalized

     Subspace diagonalization in iterative solution of the eigenvalue problem:
     a serial algorithm will be used


     G-vector sticks info
     --------------------
     sticks:   dense  smooth     PW     G-vecs:    dense   smooth      PW
     Sum         823     823    253                15473    15473    2637



     bravais-lattice index     =            2
     lattice parameter (alat)  =      10.9000  a.u.
     unit-cell volume          =     323.7572 (a.u.)^3
     number of atoms/cell      =            3
     number of atomic types    =            3
     number of electrons       =        31.00
     number of Kohn-Sham states=           30
     kinetic-energy cutoff     =      50.0000  Ry
     charge density cutoff     =     200.0000  Ry
     scf convergence threshold =      1.0E-07
     mixing beta               =       0.7000
     number of iterations used =            8  plain     mixing
     Exchange-correlation= SLA  PW   PBX  PBC
                           (   1   4   3   4   0   0   0)

     celldm(1)=  10.900000  celldm(2)=   0.000000  celldm(3)=   0.000000
     celldm(4)=   0.000000  celldm(5)=   0.000000  celldm(6)=   0.000000

     crystal axes: (cart. coord. in units of alat)
               a(1) = (  -0.500000   0.000000   0.500000 )  
               a(2) = (   0.000000   0.500000   0.500000 )  
               a(3) = (  -0.500000   0.500000   0.000000 )  

     reciprocal axes: (cart. coord. in units 2 pi/alat)
               b(1) = ( -1.000000 -1.000000  1.000000 )  
               b(2) = (  1.000000  1.000000  1.000000 )  
               b(3) = ( -1.000000  1.000000 -1.000000 )  


     PseudoPot. # 1 for Cu read from file:
     ././Cu.UPF
     MD5 check sum: cfffd1f38ee05704b3e17f46f1730a6f
     Pseudo is Projector augmented-wave + core cor, Zval = 11.0
     Generated using &quot;atomic&quot; code by A. Dal Corso  v.6.3
     Shape of augmentation charge: PSQ
     Using radial grid of 1199 points,  6 beta functions with: 
                l(1) =   0
                l(2) =   0
                l(3) =   1
                l(4) =   1
                l(5) =   2
                l(6) =   2
     Q(r) pseudized with 0 coefficients 


     PseudoPot. # 2 for Pt read from file:
     ././Pt.UPF
     MD5 check sum: c5224e9cd7a5e36e81f2def9f50bb494
     Pseudo is Projector augmented-wave + core cor, Zval = 10.0
     Generated using &quot;atomic&quot; code by A. Dal Corso  v.6.3
     Shape of augmentation charge: PSQ
     Using radial grid of 1277 points,  6 beta functions with: 
                l(1) =   0
                l(2) =   0
                l(3) =   1
                l(4) =   1
                l(5) =   2
                l(6) =   2
     Q(r) pseudized with 0 coefficients 


     PseudoPot. # 3 for Ni read from file:
     ././Ni.UPF
     MD5 check sum: 5bc40517020091042a126ac2b4ecef1e
     Pseudo is Projector augmented-wave + core cor, Zval = 10.0
     Generated using "atomic" code by A. Dal Corso  v.5.0.2 svn rev. 9415
     Shape of augmentation charge: PSQ
     Using radial grid of 1195 points,  6 beta functions with: 
                l(1) =   0
                l(2) =   0
                l(3) =   1
                l(4) =   1
                l(5) =   2
                l(6) =   2
     Q(r) pseudized with 0 coefficients 


     atomic species   valence    mass     pseudopotential
        Cu            11.00    63.54600     Cu( 1.00)
        Pt            10.00   195.08000     Pt( 1.00)
        Ni            10.00    58.69000     Ni( 1.00)

     24 Sym. Ops. (no inversion) found


                                    s                        frac. trans.

      isym =  1     identity                                     

 cryst.   s( 1) = (     1          0          0      )
                  (     0          1          0      )
                  (     0          0          1      )

 cart.    s( 1) = (  1.0000000  0.0000000  0.0000000 )
                  (  0.0000000  1.0000000  0.0000000 )
                  (  0.0000000  0.0000000  1.0000000 )


      isym =  2     180 deg rotation - cart. axis [0,0,1]        

 cryst.   s( 2) = (     0          1         -1      )
                  (     1          0         -1      )
                  (     0          0         -1      )

 cart.    s( 2) = ( -1.0000000  0.0000000  0.0000000 )
                  (  0.0000000 -1.0000000  0.0000000 )
                  (  0.0000000  0.0000000  1.0000000 )


      isym =  3     180 deg rotation - cart. axis [0,1,0]        

 cryst.   s( 3) = (    -1          0          0      )
                  (    -1          0          1      )
                  (    -1          1          0      )

 cart.    s( 3) = ( -1.0000000  0.0000000  0.0000000 )
                  (  0.0000000  1.0000000  0.0000000 )
                  (  0.0000000  0.0000000 -1.0000000 )


      isym =  4     180 deg rotation - cart. axis [1,0,0]        

 cryst.   s( 4) = (     0         -1          1      )
                  (     0         -1          0      )
                  (     1         -1          0      )

 cart.    s( 4) = (  1.0000000  0.0000000  0.0000000 )
                  (  0.0000000 -1.0000000  0.0000000 )
                  (  0.0000000  0.0000000 -1.0000000 )


      isym =  5     120 deg rotation - cart. axis [-1,-1,-1]     

 cryst.   s( 5) = (    -1          0          1      )
                  (    -1          1          0      )
                  (    -1          0          0      )

 cart.    s( 5) = (  0.0000000  1.0000000  0.0000000 )
                  (  0.0000000  0.0000000  1.0000000 )
                  (  1.0000000  0.0000000  0.0000000 )


      isym =  6     120 deg rotation - cart. axis [-1,1,1]       

 cryst.   s( 6) = (     0          1          0      )
                  (     0          0          1      )
                  (     1          0          0      )

 cart.    s( 6) = (  0.0000000 -1.0000000  0.0000000 )
                  (  0.0000000  0.0000000  1.0000000 )
                  ( -1.0000000  0.0000000  0.0000000 )


      isym =  7     120 deg rotation - cart. axis [1,1,-1]       

 cryst.   s( 7) = (     1          0         -1      )
                  (     0          0         -1      )
                  (     0          1         -1      )

 cart.    s( 7) = (  0.0000000  1.0000000  0.0000000 )
                  (  0.0000000  0.0000000 -1.0000000 )
                  ( -1.0000000  0.0000000  0.0000000 )


      isym =  8     120 deg rotation - cart. axis [1,-1,1]       

 cryst.   s( 8) = (     0         -1          0      )
                  (     1         -1          0      )
                  (     0         -1          1      )

 cart.    s( 8) = (  0.0000000 -1.0000000  0.0000000 )
                  (  0.0000000  0.0000000 -1.0000000 )
                  (  1.0000000  0.0000000  0.0000000 )


      isym =  9     120 deg rotation - cart. axis [1,1,1]        

 cryst.   s( 9) = (     0          0         -1      )
                  (     0          1         -1      )
                  (     1          0         -1      )

 cart.    s( 9) = (  0.0000000  0.0000000  1.0000000 )
                  (  1.0000000  0.0000000  0.0000000 )
                  (  0.0000000  1.0000000  0.0000000 )


      isym = 10     120 deg rotation - cart. axis [-1,1,-1]      

 cryst.   s(10) = (    -1          1          0      )
                  (    -1          0          0      )
                  (    -1          0          1      )

 cart.    s(10) = (  0.0000000  0.0000000  1.0000000 )
                  ( -1.0000000  0.0000000  0.0000000 )
                  (  0.0000000 -1.0000000  0.0000000 )


      isym = 11     120 deg rotation - cart. axis [1,-1,-1]      

 cryst.   s(11) = (     0          0          1      )
                  (     1          0          0      )
                  (     0          1          0      )

 cart.    s(11) = (  0.0000000  0.0000000 -1.0000000 )
                  ( -1.0000000  0.0000000  0.0000000 )
                  (  0.0000000  1.0000000  0.0000000 )


      isym = 12     120 deg rotation - cart. axis [-1,-1,1]      

 cryst.   s(12) = (     1         -1          0      )
                  (     0         -1          1      )
                  (     0         -1          0      )

 cart.    s(12) = (  0.0000000  0.0000000 -1.0000000 )
                  (  1.0000000  0.0000000  0.0000000 )
                  (  0.0000000 -1.0000000  0.0000000 )


      isym = 13     inv. 180 deg rotation - cart. axis [1,1,0]   

 cryst.   s(13) = (     0          1          0      )
                  (     1          0          0      )
                  (     0          0          1      )

 cart.    s(13) = (  0.0000000 -1.0000000  0.0000000 )
                  ( -1.0000000  0.0000000  0.0000000 )
                  (  0.0000000  0.0000000  1.0000000 )


      isym = 14     inv. 180 deg rotation - cart. axis [1,-1,0]  

 cryst.   s(14) = (     1          0         -1      )
                  (     0          1         -1      )
                  (     0          0         -1      )

 cart.    s(14) = (  0.0000000  1.0000000  0.0000000 )
                  (  1.0000000  0.0000000  0.0000000 )
                  (  0.0000000  0.0000000  1.0000000 )


      isym = 15     inv.  90 deg rotation - cart. axis [0,0,-1]  

 cryst.   s(15) = (     0         -1          0      )
                  (     0         -1          1      )
                  (     1         -1          0      )

 cart.    s(15) = (  0.0000000 -1.0000000  0.0000000 )
                  (  1.0000000  0.0000000  0.0000000 )
                  (  0.0000000  0.0000000 -1.0000000 )


      isym = 16     inv.  90 deg rotation - cart. axis [0,0,1]   

 cryst.   s(16) = (    -1          0          1      )
                  (    -1          0          0      )
                  (    -1          1          0      )

 cart.    s(16) = (  0.0000000  1.0000000  0.0000000 )
                  ( -1.0000000  0.0000000  0.0000000 )
                  (  0.0000000  0.0000000 -1.0000000 )


      isym = 17     inv. 180 deg rotation - cart. axis [1,0,1]   

 cryst.   s(17) = (     1          0          0      )
                  (     0          0          1      )
                  (     0          1          0      )

 cart.    s(17) = (  0.0000000  0.0000000 -1.0000000 )
                  (  0.0000000  1.0000000  0.0000000 )
                  ( -1.0000000  0.0000000  0.0000000 )


      isym = 18     inv. 180 deg rotation - cart. axis [-1,0,1]  

 cryst.   s(18) = (    -1          0          0      )
                  (    -1          1          0      )
                  (    -1          0          1      )

 cart.    s(18) = (  0.0000000  0.0000000  1.0000000 )
                  (  0.0000000  1.0000000  0.0000000 )
                  (  1.0000000  0.0000000  0.0000000 )


      isym = 19     inv.  90 deg rotation - cart. axis [0,1,0]   

 cryst.   s(19) = (     0         -1          1      )
                  (     1         -1          0      )
                  (     0         -1          0      )

 cart.    s(19) = (  0.0000000  0.0000000 -1.0000000 )
                  (  0.0000000 -1.0000000  0.0000000 )
                  (  1.0000000  0.0000000  0.0000000 )


      isym = 20     inv.  90 deg rotation - cart. axis [0,-1,0]  

 cryst.   s(20) = (     0          1         -1      )
                  (     0          0         -1      )
                  (     1          0         -1      )

 cart.    s(20) = (  0.0000000  0.0000000  1.0000000 )
                  (  0.0000000 -1.0000000  0.0000000 )
                  ( -1.0000000  0.0000000  0.0000000 )


      isym = 21     inv. 180 deg rotation - cart. axis [0,1,1]   

 cryst.   s(21) = (     1         -1          0      )
                  (     0         -1          0      )
                  (     0         -1          1      )

 cart.    s(21) = (  1.0000000  0.0000000  0.0000000 )
                  (  0.0000000  0.0000000 -1.0000000 )
                  (  0.0000000 -1.0000000  0.0000000 )


      isym = 22     inv. 180 deg rotation - cart. axis [0,1,-1]  

 cryst.   s(22) = (     0          0          1      )
                  (     0          1          0      )
                  (     1          0          0      )

 cart.    s(22) = (  1.0000000  0.0000000  0.0000000 )
                  (  0.0000000  0.0000000  1.0000000 )
                  (  0.0000000  1.0000000  0.0000000 )


      isym = 23     inv.  90 deg rotation - cart. axis [-1,0,0]  

 cryst.   s(23) = (     0          0         -1      )
                  (     1          0         -1      )
                  (     0          1         -1      )

 cart.    s(23) = ( -1.0000000  0.0000000  0.0000000 )
                  (  0.0000000  0.0000000 -1.0000000 )
                  (  0.0000000  1.0000000  0.0000000 )


      isym = 24     inv.  90 deg rotation - cart. axis [1,0,0]   

 cryst.   s(24) = (    -1          1          0      )
                  (    -1          0          1      )
                  (    -1          0          0      )

 cart.    s(24) = ( -1.0000000  0.0000000  0.0000000 )
                  (  0.0000000  0.0000000  1.0000000 )
                  (  0.0000000 -1.0000000  0.0000000 )


     point group T_d (-43m) 
     there are  5 classes
     the character table:

       E     8C3   3C2   6S4   6s_d 
A_1    1.00  1.00  1.00  1.00  1.00
A_2    1.00  1.00  1.00 -1.00 -1.00
E      2.00 -1.00  2.00  0.00  0.00
T_1    3.00  0.00 -1.00  1.00 -1.00
T_2    3.00  0.00 -1.00 -1.00  1.00

     the symmetry operations in each class and the name of the first element:

     E        1
          identity                                               
     8C3      5    7    8    6   12    9   10   11
          120 deg rotation - cart. axis [-1,-1,-1]               
     3C2      2    3    4
          180 deg rotation - cart. axis [0,0,1]                  
     6S4     15   16   20   19   23   24
          inv.  90 deg rotation - cart. axis [0,0,-1]            
     6s_d    13   14   17   18   21   22
          inv. 180 deg rotation - cart. axis [1,1,0]             

   Cartesian axes

     site n.     atom                  positions (alat units)
         1           Cu  tau(   1) = (   0.0000000   0.0000000   0.0000000  )
         2           Pt  tau(   2) = (   0.5000000   0.5000000   0.5000000  )
         3           Ni  tau(   3) = (   0.2500000   0.2500000   0.2500000  )

   Crystallographic axes

     site n.     atom                  positions (cryst. coord.)
         1           Cu  tau(   1) = (  0.0000000  0.0000000  0.0000000  )
         2           Pt  tau(   2) = ( -0.5000000  1.5000000 -0.5000000  )
         3           Ni  tau(   3) = ( -0.2500000  0.7500000 -0.2500000  )

     number of k points=    29  Methfessel-Paxton smearing, width (Ry)=  0.0050
                       cart. coord. in units 2pi/alat
        k(    1) = (   0.0000000   0.0000000   0.0000000), wk =   0.0039062
        k(    2) = (  -0.1250000   0.1250000  -0.1250000), wk =   0.0312500
        k(    3) = (  -0.2500000   0.2500000  -0.2500000), wk =   0.0312500
        k(    4) = (  -0.3750000   0.3750000  -0.3750000), wk =   0.0312500
        k(    5) = (   0.5000000  -0.5000000   0.5000000), wk =   0.0156250
        k(    6) = (   0.0000000   0.2500000   0.0000000), wk =   0.0234375
        k(    7) = (  -0.1250000   0.3750000  -0.1250000), wk =   0.0937500
        k(    8) = (  -0.2500000   0.5000000  -0.2500000), wk =   0.0937500
        k(    9) = (   0.6250000  -0.3750000   0.6250000), wk =   0.0937500
        k(   10) = (   0.5000000  -0.2500000   0.5000000), wk =   0.0937500
        k(   11) = (   0.3750000  -0.1250000   0.3750000), wk =   0.0937500
        k(   12) = (   0.2500000   0.0000000   0.2500000), wk =   0.0468750
        k(   13) = (   0.0000000   0.5000000   0.0000000), wk =   0.0234375
        k(   14) = (  -0.1250000   0.6250000  -0.1250000), wk =   0.0937500
        k(   15) = (   0.7500000  -0.2500000   0.7500000), wk =   0.0937500
        k(   16) = (   0.6250000  -0.1250000   0.6250000), wk =   0.0937500
        k(   17) = (   0.5000000   0.0000000   0.5000000), wk =   0.0468750
        k(   18) = (   0.0000000   0.7500000   0.0000000), wk =   0.0234375
        k(   19) = (   0.8750000  -0.1250000   0.8750000), wk =   0.0937500
        k(   20) = (   0.7500000   0.0000000   0.7500000), wk =   0.0468750
        k(   21) = (   0.0000000  -1.0000000   0.0000000), wk =   0.0117188
        k(   22) = (  -0.2500000   0.5000000   0.0000000), wk =   0.0937500
        k(   23) = (   0.6250000  -0.3750000   0.8750000), wk =   0.1875000
        k(   24) = (   0.5000000  -0.2500000   0.7500000), wk =   0.0937500
        k(   25) = (   0.7500000  -0.2500000   1.0000000), wk =   0.0937500
        k(   26) = (   0.6250000  -0.1250000   0.8750000), wk =   0.1875000
        k(   27) = (   0.5000000   0.0000000   0.7500000), wk =   0.0937500
        k(   28) = (  -0.2500000  -1.0000000   0.0000000), wk =   0.0468750
        k(   29) = (  -0.5000000  -1.0000000   0.0000000), wk =   0.0234375

                       cryst. coord.
        k(    1) = (   0.0000000   0.0000000   0.0000000), wk =   0.0039062
        k(    2) = (   0.0000000   0.0000000   0.1250000), wk =   0.0312500
        k(    3) = (   0.0000000   0.0000000   0.2500000), wk =   0.0312500
        k(    4) = (   0.0000000   0.0000000   0.3750000), wk =   0.0312500
        k(    5) = (   0.0000000   0.0000000  -0.5000000), wk =   0.0156250
        k(    6) = (   0.0000000   0.1250000   0.1250000), wk =   0.0234375
        k(    7) = (   0.0000000   0.1250000   0.2500000), wk =   0.0937500
        k(    8) = (   0.0000000   0.1250000   0.3750000), wk =   0.0937500
        k(    9) = (   0.0000000   0.1250000  -0.5000000), wk =   0.0937500
        k(   10) = (   0.0000000   0.1250000  -0.3750000), wk =   0.0937500
        k(   11) = (   0.0000000   0.1250000  -0.2500000), wk =   0.0937500
        k(   12) = (   0.0000000   0.1250000  -0.1250000), wk =   0.0468750
        k(   13) = (   0.0000000   0.2500000   0.2500000), wk =   0.0234375
        k(   14) = (   0.0000000   0.2500000   0.3750000), wk =   0.0937500
        k(   15) = (   0.0000000   0.2500000  -0.5000000), wk =   0.0937500
        k(   16) = (   0.0000000   0.2500000  -0.3750000), wk =   0.0937500
        k(   17) = (   0.0000000   0.2500000  -0.2500000), wk =   0.0468750
        k(   18) = (   0.0000000   0.3750000   0.3750000), wk =   0.0234375
        k(   19) = (   0.0000000   0.3750000  -0.5000000), wk =   0.0937500
        k(   20) = (   0.0000000   0.3750000  -0.3750000), wk =   0.0468750
        k(   21) = (   0.0000000  -0.5000000  -0.5000000), wk =   0.0117188
        k(   22) = (   0.1250000   0.2500000   0.3750000), wk =   0.0937500
        k(   23) = (   0.1250000   0.2500000  -0.5000000), wk =   0.1875000
        k(   24) = (   0.1250000   0.2500000  -0.3750000), wk =   0.0937500
        k(   25) = (   0.1250000   0.3750000  -0.5000000), wk =   0.0937500
        k(   26) = (   0.1250000   0.3750000  -0.3750000), wk =   0.1875000
        k(   27) = (   0.1250000   0.3750000  -0.2500000), wk =   0.0937500
        k(   28) = (   0.1250000  -0.5000000  -0.3750000), wk =   0.0468750
        k(   29) = (   0.2500000  -0.5000000  -0.2500000), wk =   0.0234375

     Dense  grid:    15473 G-vectors     FFT dimensions: (  36,  36,  36)

     Dynamical RAM for                 wfc:       0.88 MB

     Dynamical RAM for     wfc (w. buffer):      26.55 MB

     Dynamical RAM for           str. fact:       0.71 MB

     Dynamical RAM for           local pot:       0.00 MB

     Dynamical RAM for          nlocal pot:       1.59 MB

     Dynamical RAM for                qrad:       3.41 MB

     Dynamical RAM for          rho,v,vnew:       1.78 MB

     Dynamical RAM for               rhoin:       0.59 MB

     Dynamical RAM for            rho*nmix:       3.78 MB

     Dynamical RAM for           G-vectors:       1.00 MB

     Dynamical RAM for          h,s,v(r/c):       0.16 MB

     Dynamical RAM for          <psi|beta>:       0.02 MB

     Dynamical RAM for                 psi:       1.77 MB

     Dynamical RAM for                hpsi:       1.77 MB

     Dynamical RAM for                spsi:       1.77 MB

     Dynamical RAM for      wfcinit/wfcrot:       1.79 MB

     Dynamical RAM for           addusdens:      44.15 MB

     Estimated static dynamical RAM per process >      42.13 MB

     Estimated max dynamical RAM per process >      86.28 MB

     Check: negative core charge=   -0.000003

     Initial potential from superposition of free atoms

     starting charge   30.99935, renormalised to   31.00000
     Starting wfcs are   27 randomized atomic wfcs +    3 random wfcs
     Checking if some PAW data can be deallocated... 

     total cpu time spent up to now is        2.3 secs

     Self-consistent Calculation

     iteration #  1     ecut=    50.00 Ry     beta= 0.70
     Davidson diagonalization with overlap
     ethr =  1.00E-02,  avg # of iterations =  5.7

     total cpu time spent up to now is        6.9 secs

     total energy              =   -1144.59081040 Ry
     estimated scf accuracy    <       1.87837958 Ry

     iteration #  2     ecut=    50.00 Ry     beta= 0.70
     Davidson diagonalization with overlap
     ethr =  6.06E-03,  avg # of iterations =  2.2

     total cpu time spent up to now is       11.0 secs

     total energy              =   -1142.66337014 Ry
     estimated scf accuracy    <      48.68853076 Ry

     iteration #  3     ecut=    50.00 Ry     beta= 0.70
     Davidson diagonalization with overlap
     ethr =  6.06E-03,  avg # of iterations =  2.0

     total cpu time spent up to now is       14.7 secs

     total energy              =   -1145.96490663 Ry
     estimated scf accuracy    <       0.46389346 Ry

     iteration #  4     ecut=    50.00 Ry     beta= 0.70
     Davidson diagonalization with overlap
     ethr =  1.50E-03,  avg # of iterations =  1.3

     total cpu time spent up to now is       18.0 secs

     total energy              =   -1146.02309628 Ry
     estimated scf accuracy    <       0.07595295 Ry

     iteration #  5     ecut=    50.00 Ry     beta= 0.70
     Davidson diagonalization with overlap
     ethr =  2.45E-04,  avg # of iterations =  2.2

     total cpu time spent up to now is       21.4 secs

     total energy              =   -1146.02325385 Ry
     estimated scf accuracy    <       0.02670430 Ry

     iteration #  6     ecut=    50.00 Ry     beta= 0.70
     Davidson diagonalization with overlap
     ethr =  8.61E-05,  avg # of iterations =  2.9

     total cpu time spent up to now is       24.9 secs

     total energy              =   -1146.02590525 Ry
     estimated scf accuracy    <       0.00144746 Ry

     iteration #  7     ecut=    50.00 Ry     beta= 0.70
     Davidson diagonalization with overlap
     c_bands:  1 eigenvalues not converged
     ethr =  4.67E-06,  avg # of iterations =  9.3

     total cpu time spent up to now is       29.7 secs

     total energy              =   -1146.02641344 Ry
     estimated scf accuracy    <       0.00132106 Ry

     iteration #  8     ecut=    50.00 Ry     beta= 0.70
     Davidson diagonalization with overlap
     ethr =  4.26E-06,  avg # of iterations =  1.3

     total cpu time spent up to now is       33.0 secs

     total energy              =   -1146.02651232 Ry
     estimated scf accuracy    <       0.00002365 Ry

     iteration #  9     ecut=    50.00 Ry     beta= 0.70
     Davidson diagonalization with overlap
     ethr =  7.63E-08,  avg # of iterations =  3.8

     total cpu time spent up to now is       37.0 secs

     total energy              =   -1146.02652301 Ry
     estimated scf accuracy    <       0.00000194 Ry

     iteration # 10     ecut=    50.00 Ry     beta= 0.70
     Davidson diagonalization with overlap
     ethr =  6.26E-09,  avg # of iterations =  3.3

     total cpu time spent up to now is       40.7 secs

     total energy              =   -1146.02652329 Ry
     estimated scf accuracy    <       0.00000076 Ry

     iteration # 11     ecut=    50.00 Ry     beta= 0.70
     Davidson diagonalization with overlap
     ethr =  2.46E-09,  avg # of iterations =  1.5

     total cpu time spent up to now is       44.1 secs

     End of self-consistent calculation

          k = 0.0000 0.0000 0.0000 (  1917 PWs)   bands (ev):

     2.7573   6.5263   6.5263   6.9596   6.9596   6.9596   8.1390   8.1390
     8.1390   9.4558   9.4558   9.7322   9.7322   9.7322  10.2504  10.2504
    17.9095  17.9095  17.9095  19.6365  20.1885  20.6373  20.6373  20.6373
    22.9650  22.9650  22.9650  27.5994  27.5994  27.8438

     occupation numbers 
     1.0000   1.0000   1.0000   1.0000   1.0000   1.0000   1.0000   1.0000
     1.0000   1.0000   1.0000   1.0000   1.0000   1.0000   1.0199   1.0199
    -0.0000  -0.0000  -0.0000  -0.0000  -0.0000  -0.0000  -0.0000  -0.0000
    -0.0000  -0.0000  -0.0000  -0.0000  -0.0000  -0.0000

          k =-0.1250 0.1250-0.1250 (  1934 PWs)   bands (ev):

     2.9921   6.5903   6.5903   6.9157   7.0222   7.0222   8.1153   8.1153
     8.2046   9.3522   9.3522   9.5142   9.7004   9.7004  10.2635  10.2635
    16.0086  17.8224  17.8224  19.5410  20.5180  20.5180  20.6642  21.2687
    23.0688  23.0688  24.1465  28.2796  28.2796  29.0323

     occupation numbers 
     1.0000   1.0000   1.0000   1.0000   1.0000   1.0000   1.0000   1.0000
     1.0000   1.0000   1.0000   1.0000   1.0000   1.0000   1.0286   1.0286
    -0.0000  -0.0000  -0.0000  -0.0000  -0.0000  -0.0000  -0.0000  -0.0000
    -0.0000  -0.0000  -0.0000  -0.0000  -0.0000  -0.0000

          k =-0.2500 0.2500-0.2500 (  1934 PWs)   bands (ev):

     3.6662   6.7703   6.7703   6.8607   7.1769   7.1769   8.0618   8.0618
     8.2826   8.9863   9.0456   9.0456   9.6929   9.6929  10.2565  10.2565
    13.5174  17.6023  17.6023  19.0115  20.1075  20.1075  20.7473  22.6364
    23.8096  23.8096  27.2313  29.8214  29.8214  31.7712

     occupation numbers 
     1.0000   1.0000   1.0000   1.0000   1.0000   1.0000   1.0000   1.0000
     1.0000   1.0000   1.0000   1.0000   1.0000   1.0000   1.0240   1.0240
    -0.0000  -0.0000  -0.0000  -0.0000  -0.0000  -0.0000  -0.0000  -0.0000
    -0.0000  -0.0000  -0.0000  -0.0000  -0.0000  -0.0000

          k =-0.3750 0.3750-0.3750 (  1922 PWs)   bands (ev):

     4.6439   6.8551   7.0077   7.0077   7.3372   7.3372   7.9121   8.0236
     8.0236   8.6683   8.6683   8.6917   9.7271   9.7271  10.2092  10.2092
    11.5980  17.3534  17.3534  18.6554  19.7187  19.7187  20.5412  24.8663
    25.1843  25.1843  30.1115  30.1117  30.4193  32.0636

     occupation numbers 
     1.0000   1.0000   1.0000   1.0000   1.0000   1.0000   1.0000   1.0000
     1.0000   1.0000   1.0000   1.0000   1.0000   1.0000   1.0030   1.0030
    -0.0000  -0.0000  -0.0000  -0.0000  -0.0000  -0.0000  -0.0000  -0.0000
    -0.0000  -0.0000  -0.0000  -0.0000  -0.0000  -0.0000

          k = 0.5000-0.5000 0.5000 (  1916 PWs)   bands (ev):

     5.3227   6.7849   7.1367   7.1367   7.4058   7.4058   7.4896   8.0281
     8.0281   8.4637   8.4637   8.6837   9.7528   9.7528  10.1759  10.1759
    10.8482  17.2396  17.2396  18.5310  19.5808  19.5808  20.4683  26.2885
    26.2885  26.9417  28.8200  28.8200  28.8214  33.6659

     occupation numbers 
     1.0000   1.0000   1.0000   1.0000   1.0000   1.0000   1.0000   1.0000
     1.0000   1.0000   1.0000   1.0000   1.0000   1.0000   1.0003   1.0003
    -0.0000  -0.0000  -0.0000  -0.0000  -0.0000  -0.0000  -0.0000  -0.0000
    -0.0000  -0.0000  -0.0000  -0.0000  -0.0000  -0.0000

          k = 0.0000 0.2500 0.0000 (  1937 PWs)   bands (ev):

     3.0688   6.5809   6.6225   6.8765   7.0545   7.0545   8.0233   8.2048
     8.2048   9.2192   9.4403   9.6378   9.6378   9.6421  10.1752  10.3117
    16.8112  16.8112  16.9953  18.8052  20.0929  21.3036  21.3036  21.7435
    23.1828  24.0660  24.0660  27.5313  27.7487  30.4046

     occupation numbers 
     1.0000   1.0000   1.0000   1.0000   1.0000   1.0000   1.0000   1.0000
     1.0000   1.0000   1.0000   1.0000   1.0000   1.0000   1.0003   0.9816
    -0.0000  -0.0000  -0.0000  -0.0000  -0.0000  -0.0000  -0.0000  -0.0000
    -0.0000  -0.0000  -0.0000  -0.0000  -0.0000  -0.0000

          k =-0.1250 0.3750-0.1250 (  1942 PWs)   bands (ev):

     3.5919   6.6373   6.7702   6.8315   7.1766   7.2045   7.8605   8.2436
     8.2883   9.0052   9.2438   9.2987   9.6349   9.6850  10.1188  10.3281
    14.4035  16.1182  17.3200  18.0217  20.0732  21.3308  21.5905  22.7598
    24.0097  24.9229  26.2814  28.2007  28.9018  32.6524

     occupation numbers 
     1.0000   1.0000   1.0000   1.0000   1.0000   1.0000   1.0000   1.0000
     1.0000   1.0000   1.0000   1.0000   1.0000   1.0000   1.0000   0.8847
    -0.0000  -0.0000  -0.0000  -0.0000  -0.0000  -0.0000  -0.0000  -0.0000
    -0.0000  -0.0000  -0.0000  -0.0000  -0.0000  -0.0000

          k =-0.2500 0.5000-0.2500 (  1952 PWs)   bands (ev):

     4.4707   6.6721   6.8762   6.9854   7.3240   7.4308   7.7378   8.2255
     8.2268   8.7408   8.8426   8.9251   9.6938   9.7103  10.1025  10.3011
    12.1818  15.8580  16.4420  18.1086  20.5525  21.3272  21.8729  22.6448
    25.8047  26.0146  29.0527  29.3418  30.7665  31.7746

     occupation numbers 
     1.0000   1.0000   1.0000   1.0000   1.0000   1.0000   1.0000   1.0000
     1.0000   1.0000   1.0000   1.0000   1.0000   1.0000   1.0000   1.0155
    -0.0000  -0.0000  -0.0000  -0.0000  -0.0000  -0.0000  -0.0000  -0.0000
    -0.0000  -0.0000  -0.0000  -0.0000  -0.0000  -0.0000

          k = 0.6250-0.3750 0.6250 (  1941 PWs)   bands (ev):

     5.3648   6.5412   6.9843   7.1370   7.4101   7.4633   7.8604   8.0274
     8.1497   8.4669   8.5593   8.7896   9.7010   9.7638  10.1820  10.2025
    10.9096  15.6536  16.0953  18.1894  20.5290  20.8730  22.2196  24.1547
    26.4491  27.0911  28.7363  28.8176  31.3333  32.4107

     occupation numbers 
     1.0000   1.0000   1.0000   1.0000   1.0000   1.0000   1.0000   1.0000
     1.0000   1.0000   1.0000   1.0000   1.0000   1.0000   1.0005   1.0020
    -0.0000  -0.0000  -0.0000  -0.0000  -0.0000  -0.0000  -0.0000  -0.0000
    -0.0000  -0.0000  -0.0000  -0.0000  -0.0000  -0.0000

          k = 0.5000-0.2500 0.5000 (  1930 PWs)   bands (ev):

     5.1134   6.6445   6.9953   7.0887   7.4474   7.4879   7.7594   7.9491
     8.2016   8.5014   8.6030   8.8312   9.6806   9.7877  10.0795  10.2977
    11.2247  15.2097  16.8290  18.4208  20.4293  20.4307  22.4053  24.6408
    24.7454  26.7269  29.0853  30.3930  30.5469  32.0169

     occupation numbers 
     1.0000   1.0000   1.0000   1.0000   1.0000   1.0000   1.0000   1.0000
     1.0000   1.0000   1.0000   1.0000   1.0000   1.0000   1.0000   1.0223
    -0.0000  -0.0000  -0.0000  -0.0000  -0.0000  -0.0000  -0.0000  -0.0000
    -0.0000  -0.0000  -0.0000  -0.0000  -0.0000  -0.0000

          k = 0.3750-0.1250 0.3750 (  1930 PWs)   bands (ev):

     4.1512   6.7529   6.8435   6.8828   7.3154   7.3618   7.9007   8.0354
     8.2644   8.8127   8.8341   9.0680   9.6784   9.7305  10.0613  10.3585
    12.9013  15.1860  17.9531  18.9207  19.9175  20.3825  21.9527  23.1934
    23.3468  26.6590  28.0430  29.0657  30.4413  31.7993

     occupation numbers 
     1.0000   1.0000   1.0000   1.0000   1.0000   1.0000   1.0000   1.0000
     1.0000   1.0000   1.0000   1.0000   1.0000   1.0000   1.0000   0.5681
    -0.0000  -0.0000  -0.0000  -0.0000  -0.0000  -0.0000  -0.0000  -0.0000
    -0.0000  -0.0000  -0.0000  -0.0000  -0.0000  -0.0000

          k = 0.2500 0.0000 0.2500 (  1943 PWs)   bands (ev):

     3.3723   6.6843   6.6854   6.8335   7.1177   7.1572   7.9966   8.1853
     8.2321   9.1301   9.1550   9.3881   9.6586   9.6950  10.1520  10.3418
    15.0230  15.8213  18.8461  19.4608  19.7360  20.1820  20.8740  22.5947
    22.6455  25.0311  25.5809  27.6149  29.8731  30.9054

     occupation numbers 
     1.0000   1.0000   1.0000   1.0000   1.0000   1.0000   1.0000   1.0000
     1.0000   1.0000   1.0000   1.0000   1.0000   1.0000   1.0000   0.7607
    -0.0000  -0.0000  -0.0000  -0.0000  -0.0000  -0.0000  -0.0000  -0.0000
    -0.0000  -0.0000  -0.0000  -0.0000  -0.0000  -0.0000

          k = 0.0000 0.5000 0.0000 (  1964 PWs)   bands (ev):

     3.9391   6.4991   6.8046   6.8810   7.2614   7.2614   7.6443   8.3775
     8.3775   8.9803   9.3846   9.5310   9.5310   9.5759   9.9853  10.3164
    14.9448  14.9448  15.7360  16.3920  19.4828  22.8176  22.8176  25.0875
    25.3663  26.2729  26.2729  27.3503  27.8858  33.0655

     occupation numbers 
     1.0000   1.0000   1.0000   1.0000   1.0000   1.0000   1.0000   1.0000
     1.0000   1.0000   1.0000   1.0000   1.0000   1.0000   1.0000   0.9597
    -0.0000  -0.0000  -0.0000  -0.0000  -0.0000  -0.0000  -0.0000  -0.0000
    -0.0000  -0.0000  -0.0000  -0.0000  -0.0000  -0.0000

          k =-0.1250 0.6250-0.1250 (  1939 PWs)   bands (ev):

     4.6370   6.4365   6.6994   7.0558   7.3801   7.3968   7.6079   8.3951
     8.4176   8.9244   9.1396   9.3165   9.6069   9.7007   9.9890  10.3214
    12.9239  14.3290  14.5538  17.0219  19.8256  23.0542  23.2653  25.3786
    26.9633  27.1158  27.9432  28.2581  29.6944  31.6276

     occupation numbers 
     1.0000   1.0000   1.0000   1.0000   1.0000   1.0000   1.0000   1.0000
     1.0000   1.0000   1.0000   1.0000   1.0000   1.0000   1.0000   0.9313
    -0.0000  -0.0000  -0.0000  -0.0000  -0.0000  -0.0000  -0.0000  -0.0000
    -0.0000  -0.0000  -0.0000  -0.0000  -0.0000  -0.0000

          k = 0.7500-0.2500 0.7500 (  1923 PWs)   bands (ev):

     5.4806   6.3301   6.6790   7.1699   7.3099   7.5658   7.8751   8.2898
     8.5063   8.7066   8.7732   9.1462   9.5689   9.8366  10.2021  10.3035
    11.1263  13.5874  14.4376  17.5992  21.2205  22.7753  22.9901  25.1254
    26.7921  27.4052  28.6766  29.3231  31.1444  32.1978

     occupation numbers 
     1.0000   1.0000   1.0000   1.0000   1.0000   1.0000   1.0000   1.0000
     1.0000   1.0000   1.0000   1.0000   1.0000   1.0000   1.0019   1.0096
    -0.0000  -0.0000  -0.0000  -0.0000  -0.0000  -0.0000  -0.0000  -0.0000
    -0.0000  -0.0000  -0.0000  -0.0000  -0.0000  -0.0000

          k = 0.6250-0.1250 0.6250 (  1931 PWs)   bands (ev):

     5.6938   6.3530   6.8662   7.1541   7.1650   7.7090   8.0023   8.1292
     8.3368   8.5112   8.7674   8.9597   9.5772   9.7820  10.2045  10.3576
    11.0694  12.9639  15.2398  17.9340  22.0052  22.5446  23.4941  24.5519
    24.6794  26.1707  29.5560  30.5103  31.8591  32.4773

     occupation numbers 
     1.0000   1.0000   1.0000   1.0000   1.0000   1.0000   1.0000   1.0000
     1.0000   1.0000   1.0000   1.0000   1.0000   1.0000   1.0023   0.5787
    -0.0000  -0.0000  -0.0000  -0.0000  -0.0000  -0.0000  -0.0000  -0.0000
    -0.0000  -0.0000  -0.0000  -0.0000  -0.0000  -0.0000

          k = 0.5000 0.0000 0.5000 (  1923 PWs)   bands (ev):

     4.9352   6.6261   6.8555   7.0523   7.4337   7.5829   7.8499   7.8972
     8.3054   8.5366   8.7598   9.0429   9.6273   9.7893   9.9942  10.4005
    12.4701  13.0187  16.5242  18.3342  21.6095  21.7694  22.1557  23.2331
    25.4276  26.5780  28.1813  30.3342  30.8164  32.2228

     occupation numbers 
     1.0000   1.0000   1.0000   1.0000   1.0000   1.0000   1.0000   1.0000
     1.0000   1.0000   1.0000   1.0000   1.0000   1.0000   1.0000   0.1101
    -0.0000  -0.0000  -0.0000  -0.0000  -0.0000  -0.0000  -0.0000  -0.0000
    -0.0000  -0.0000  -0.0000  -0.0000  -0.0000  -0.0000

          k = 0.0000 0.7500 0.0000 (  1952 PWs)   bands (ev):

     5.0681   6.2497   6.5845   7.1963   7.4308   7.4308   7.6035   8.4483
     8.4483   9.0307   9.2671   9.4789   9.8000   9.8545   9.8545  10.3639
    12.8962  13.2381  13.2381  16.1202  19.2464  24.9364  24.9364  27.1419
    27.6752  28.1136  28.4202  28.4202  29.4378  31.4378

     occupation numbers 
     1.0000   1.0000   1.0000   1.0000   1.0000   1.0000   1.0000   1.0000
     1.0000   1.0000   1.0000   1.0000   1.0000   1.0000   1.0000   0.5013
    -0.0000  -0.0000  -0.0000  -0.0000  -0.0000  -0.0000  -0.0000  -0.0000
    -0.0000  -0.0000  -0.0000  -0.0000  -0.0000  -0.0000

          k = 0.8750-0.1250 0.8750 (  1935 PWs)   bands (ev):

     5.5873   6.1431   6.6049   7.2621   7.3345   7.5671   7.7686   8.3568
     8.5644   9.0086   9.1498   9.3934   9.5164  10.1598  10.2450  10.5127
    11.5610  12.1583  13.0213  16.7509  19.6609  25.0814  25.2310  26.9628
    27.1806  28.3780  28.9669  29.7360  30.8227  30.8687

     occupation numbers 
     1.0000   1.0000   1.0000   1.0000   1.0000   1.0000   1.0000   1.0000
     1.0000   1.0000   1.0000   1.0000   1.0000   1.0001   1.0165  -0.0042
    -0.0000  -0.0000  -0.0000  -0.0000  -0.0000  -0.0000  -0.0000  -0.0000
    -0.0000  -0.0000  -0.0000  -0.0000  -0.0000  -0.0000

          k = 0.7500 0.0000 0.7500 (  1926 PWs)   bands (ev):

     5.9859   6.1037   6.7565   7.0336   7.2214   7.7664   7.9212   8.1912
     8.7060   8.8415   8.9120   9.2496   9.4653  10.1484  10.3717  10.3829
    11.0953  11.5245  13.8357  17.4725  21.1536  24.5301  24.7619  24.7631
    25.0198  28.6525  29.1865  30.0791  31.3138  32.1837

     occupation numbers 
     1.0000   1.0000   1.0000   1.0000   1.0000   1.0000   1.0000   1.0000
     1.0000   1.0000   1.0000   1.0000   1.0000   1.0000   0.4046   0.2745
    -0.0000  -0.0000  -0.0000  -0.0000  -0.0000  -0.0000  -0.0000  -0.0000
    -0.0000  -0.0000  -0.0000  -0.0000  -0.0000  -0.0000

          k = 0.0000-1.0000 0.0000 (  1964 PWs)   bands (ev):

     5.6347   6.0090   6.6586   7.3555   7.4921   7.4921   7.7104   8.4178
     8.4178   9.1074   9.1780   9.3999   9.7348  10.3095  10.3095  10.7603
    11.2027  12.3475  12.3475  16.0692  19.1864  26.7706  26.7706  27.0465
    27.9757  28.5971  28.5971  29.6879  30.2541  30.2542

     occupation numbers 
     1.0000   1.0000   1.0000   1.0000   1.0000   1.0000   1.0000   1.0000
     1.0000   1.0000   1.0000   1.0000   1.0000   0.9902   0.9902  -0.0000
    -0.0000  -0.0000  -0.0000  -0.0000  -0.0000  -0.0000  -0.0000  -0.0000
    -0.0000  -0.0000  -0.0000  -0.0000  -0.0000  -0.0000

          k =-0.2500 0.5000 0.0000 (  1936 PWs)   bands (ev):

     4.2136   6.5991   6.7839   6.9577   7.3186   7.3798   7.6816   8.2573
     8.3356   8.8998   8.9710   9.2089   9.6515   9.7098  10.0027  10.3554
    13.5928  14.2236  16.3352  18.4161  20.2182  20.9010  22.9019  23.7170
    24.6236  27.1579  27.8348  28.0280  29.7221  31.6709

     occupation numbers 
     1.0000   1.0000   1.0000   1.0000   1.0000   1.0000   1.0000   1.0000
     1.0000   1.0000   1.0000   1.0000   1.0000   1.0000   1.0000   0.6065
    -0.0000  -0.0000  -0.0000  -0.0000  -0.0000  -0.0000  -0.0000  -0.0000
    -0.0000  -0.0000  -0.0000  -0.0000  -0.0000  -0.0000

          k = 0.6250-0.3750 0.8750 (  1931 PWs)   bands (ev):

     5.0883   6.5382   6.7434   7.1467   7.4271   7.4682   7.8129   8.1448
     8.3748   8.5937   8.7579   9.0538   9.6053   9.8110  10.0524  10.3524
    11.7646  13.8433  15.2335  19.0113  20.2003  21.6351  23.2376  24.3512
    25.6896  26.8019  28.8390  29.7116  30.9450  31.6875

     occupation numbers 
     1.0000   1.0000   1.0000   1.0000   1.0000   1.0000   1.0000   1.0000
     1.0000   1.0000   1.0000   1.0000   1.0000   1.0000   1.0000   0.6421
    -0.0000  -0.0000  -0.0000  -0.0000  -0.0000  -0.0000  -0.0000  -0.0000
    -0.0000  -0.0000  -0.0000  -0.0000  -0.0000  -0.0000

          k = 0.5000-0.2500 0.7500 (  1918 PWs)   bands (ev):

     5.7126   6.3003   6.8287   7.1367   7.4165   7.5312   8.0366   8.0746
     8.3327   8.4654   8.7391   8.9172   9.5797   9.8948  10.1691  10.3097
    10.7908  14.0154  14.6249  19.0861  20.0484  23.0291  23.4238  24.2752
    24.9154  27.3179  28.4383  31.4294  31.5248  31.8971

     occupation numbers 
     1.0000   1.0000   1.0000   1.0000   1.0000   1.0000   1.0000   1.0000
     1.0000   1.0000   1.0000   1.0000   1.0000   1.0000   1.0002   0.9897
    -0.0000  -0.0000  -0.0000  -0.0000  -0.0000  -0.0000  -0.0000  -0.0000
    -0.0000  -0.0000  -0.0000  -0.0000  -0.0000  -0.0000

          k = 0.7500-0.2500 1.0000 (  1936 PWs)   bands (ev):

     5.2904   6.3526   6.5664   7.1779   7.3653   7.5371   7.7414   8.3565
     8.5051   8.8905   8.9974   9.2651   9.5266   9.9131  10.1191  10.3740
    12.3036  12.7553  13.4856  17.7644  20.0406  22.5320  25.1486  26.2628
    27.0374  27.2586  28.2219  29.7947  30.5258  31.5203

     occupation numbers 
     1.0000   1.0000   1.0000   1.0000   1.0000   1.0000   1.0000   1.0000
     1.0000   1.0000   1.0000   1.0000   1.0000   1.0000   1.0000   0.3774
    -0.0000  -0.0000  -0.0000  -0.0000  -0.0000  -0.0000  -0.0000  -0.0000
    -0.0000  -0.0000  -0.0000  -0.0000  -0.0000  -0.0000

          k = 0.6250-0.1250 0.8750 (  1928 PWs)   bands (ev):

     5.8999   6.2197   6.6563   7.0159   7.3904   7.7215   7.9059   8.2402
     8.4995   8.7822   8.8651   9.2047   9.4715  10.1880  10.3606  10.4848
    10.9121  12.3162  13.1329  18.6990  21.2439  21.9763  24.0859  25.5778
    27.2783  27.7825  28.6890  30.3371  31.0941  31.4018

     occupation numbers 
     1.0000   1.0000   1.0000   1.0000   1.0000   1.0000   1.0000   1.0000
     1.0000   1.0000   1.0000   1.0000   1.0000   1.0008   0.5417  -0.0154
    -0.0000  -0.0000  -0.0000  -0.0000  -0.0000  -0.0000  -0.0000  -0.0000
    -0.0000  -0.0000  -0.0000  -0.0000  -0.0000  -0.0000

          k = 0.5000 0.0000 0.7500 (  1926 PWs)   bands (ev):

     5.7564   6.3532   6.7029   7.0295   7.4348   7.6905   7.9464   8.1225
     8.3359   8.7271   8.8029   9.1023   9.5029   9.9290  10.2347  10.4091
    11.6570  11.9665  14.0094  19.2851  20.9401  22.0920  23.6766  25.1284
    25.7874  27.6487  28.2299  30.8405  31.1862  32.6594

     occupation numbers 
     1.0000   1.0000   1.0000   1.0000   1.0000   1.0000   1.0000   1.0000
     1.0000   1.0000   1.0000   1.0000   1.0000   1.0000   1.0109   0.0535
    -0.0000  -0.0000  -0.0000  -0.0000  -0.0000  -0.0000  -0.0000  -0.0000
    -0.0000  -0.0000  -0.0000  -0.0000  -0.0000  -0.0000

          k =-0.2500-1.0000 0.0000 (  1928 PWs)   bands (ev):

     5.8173   6.1234   6.6695   7.1220   7.3193   7.6982   7.8124   8.3438
     8.6707   8.9828   9.0705   9.2169   9.4514  10.3344  10.4084  10.8595
    11.1305  11.9759  12.1140  17.5755  19.9642  24.2951  24.7096  27.2490
    27.6148  28.3023  29.4346  29.8666  30.6004  30.9349

     occupation numbers 
     1.0000   1.0000   1.0000   1.0000   1.0000   1.0000   1.0000   1.0000
     1.0000   1.0000   1.0000   1.0000   1.0000   0.8327   0.0577  -0.0000
    -0.0000  -0.0000  -0.0000  -0.0000  -0.0000  -0.0000  -0.0000  -0.0000
    -0.0000  -0.0000  -0.0000  -0.0000  -0.0000  -0.0000

          k =-0.5000-1.0000 0.0000 (  1912 PWs)   bands (ev):

     6.0155   6.3188   6.6887   6.7776   7.6195   7.7435   7.8714   8.2721
     8.2870   8.8274   8.8917   9.2711   9.4544  10.3426  10.4930  11.0739
    11.2137  11.3624  12.0039  20.6392  20.7171  21.6213  22.3347  27.6670
    27.9495  28.2694  29.4859  29.5085  29.8994  30.6667

     occupation numbers 
     1.0000   1.0000   1.0000   1.0000   1.0000   1.0000   1.0000   1.0000
     1.0000   1.0000   1.0000   1.0000   1.0000   0.7519  -0.0110  -0.0000
    -0.0000  -0.0000  -0.0000  -0.0000  -0.0000  -0.0000  -0.0000  -0.0000
    -0.0000  -0.0000  -0.0000  -0.0000  -0.0000  -0.0000

     the Fermi energy is    10.3640 ev

!    total energy              =   -1146.02652339 Ry

     total all-electron energy =    -43178.985903 Ry
     estimated scf accuracy    <          7.4E-09 Ry
     smearing contrib. (-TS)   =      -0.00049892 Ry
     internal energy E=F+TS    =   -1146.02602447 Ry

     The total energy is F=E-TS. E is the sum of the following terms:
     one-electron contribution =     -59.48180268 Ry
     hartree contribution      =      71.02425768 Ry
     xc contribution           =    -110.05918738 Ry
     ewald contribution        =    -187.91697872 Ry
     one-center paw contrib.   =    -859.59231338 Ry
      -> PAW hartree energy AE =     227.64316852 Ry
      -> PAW hartree energy PS =    -226.55458475 Ry
      -> PAW xc energy AE      =    -970.41359321 Ry
      -> PAW xc energy PS      =     109.73269606 Ry
      -> total E_H with PAW    =      72.11284146 Ry
      -> total E_XC with PAW   =    -970.74008453 Ry

     convergence has been achieved in  11 iterations

     Writing output data file ././CuPtNi.save/

     init_run     :      2.87s CPU      2.10s WALL (       1 calls)
     electrons    :     69.79s CPU     41.80s WALL (       1 calls)

     Called by init_run:
     wfcinit      :      1.71s CPU      0.99s WALL (       1 calls)
     wfcinit:atom :      0.04s CPU      0.02s WALL (      29 calls)
     wfcinit:wfcr :      1.58s CPU      0.94s WALL (      29 calls)
     potinit      :      0.34s CPU      0.35s WALL (       1 calls)
     hinit0       :      0.69s CPU      0.65s WALL (       1 calls)

     Called by electrons:
     c_bands      :     52.32s CPU     29.95s WALL (      11 calls)
     sum_band     :     11.70s CPU      6.81s WALL (      11 calls)
     v_of_rho     :      0.37s CPU      0.23s WALL (      12 calls)
     v_h          :      0.01s CPU      0.01s WALL (      12 calls)
     v_xc         :      0.36s CPU      0.22s WALL (      12 calls)
     newd         :      1.25s CPU      0.98s WALL (      12 calls)
     PAW_pot      :      4.52s CPU      4.20s WALL (      12 calls)
     mix_rho      :      0.05s CPU      0.03s WALL (      11 calls)

     Called by c_bands:
     init_us_2    :      1.21s CPU      0.61s WALL (     667 calls)
     cegterg      :     47.90s CPU     27.46s WALL (     319 calls)

     Called by sum_band:
     sum_band:wei :      0.02s CPU      0.01s WALL (      11 calls)
     sum_band:loo :      9.34s CPU      5.62s WALL (      11 calls)
     sum_band:buf :      0.06s CPU      0.03s WALL (     319 calls)
     sum_band:ini :      0.54s CPU      0.29s WALL (     319 calls)
     sum_band:cal :      0.23s CPU      0.14s WALL (     319 calls)
     sum_band:bec :      0.01s CPU      0.00s WALL (     319 calls)
     addusdens    :      2.28s CPU      1.14s WALL (      11 calls)
     addusd:skk   :      0.00s CPU      0.00s WALL (      33 calls)
     addusd:dgemm :      1.23s CPU      0.46s WALL (      33 calls)
     addusd:qvan2 :      0.84s CPU      0.53s WALL (      33 calls)

     Called by *egterg:
     cdiaghg      :      2.60s CPU      1.17s WALL (    1346 calls)
     cegterg:over :      1.09s CPU      0.45s WALL (    1027 calls)
     cegterg:upda :      0.92s CPU      0.37s WALL (    1027 calls)
     cegterg:last :      1.42s CPU      0.55s WALL (     610 calls)
     h_psi        :     41.51s CPU     25.03s WALL (    1375 calls)
     s_psi        :      0.72s CPU      0.34s WALL (    1375 calls)
     g_psi        :      0.43s CPU      0.16s WALL (    1027 calls)

     Called by h_psi:
     h_psi:calbec :      0.88s CPU      0.68s WALL (    1375 calls)
     vloc_psi     :     39.62s CPU     23.83s WALL (    1375 calls)
     add_vuspsi   :      0.72s CPU      0.38s WALL (    1375 calls)

     General routines
     calbec       :      1.10s CPU      0.82s WALL (    1694 calls)
     fft          :      0.15s CPU      0.10s WALL (     132 calls)
     ffts         :      0.02s CPU      0.01s WALL (      11 calls)
     fftw         :     41.57s CPU     25.06s WALL (   57318 calls)

     Parallel routines

     PAW routines
     PAW_pot      :      4.52s CPU      4.20s WALL (      12 calls)
     PAW_symme    :      0.01s CPU      0.01s WALL (      23 calls)

     PWSCF        :   1m12.94s CPU     44.18s WALL


   This run was terminated on:  13: 0:56  22May2024            

=------------------------------------------------------------------------------=
   JOB DONE.
=------------------------------------------------------------------------------=
