
     Program PWSCF v.6.7MaX starts on 22May2024 at 13: 8:33 

     This program is part of the open-source Quantum ESPRESSO suite
     for quantum simulation of materials; please cite
         "P. Giannozzi et al., J. Phys.:Condens. Matter 21 395502 (2009);
         "P. Giannozzi et al., J. Phys.:Condens. Matter 29 465901 (2017);
          URL http://www.quantum-espresso.org", 
     in publications or presentations arising from this work. More details at
     http://www.quantum-espresso.org/quote

     Parallel version (MPI), running on     1 processors

     MPI processes distributed on     1 nodes
     Waiting for input...
     Reading input from standard input

     Current dimensions of program PWSCF are:
     Max number of different atomic species (ntypx) = 10
     Max number of k-points (npk) =  40000
     Max angular momentum in pseudopotentials (lmaxx) =  3
     file Cu.UPF: wavefunction(s)  4S 3D renormalized
     file Pt.UPF: wavefunction(s)  6S 5D renormalized
     file Ni.UPF: wavefunction(s)  4S 3D renormalized

     Subspace diagonalization in iterative solution of the eigenvalue problem:
     a serial algorithm will be used


     G-vector sticks info
     --------------------
     sticks:   dense  smooth     PW     G-vecs:    dense   smooth      PW
     Sum         955     955    295                19603    19603    3215



     bravais-lattice index     =            2
     lattice parameter (alat)  =      11.8000  a.u.
     unit-cell volume          =     410.7580 (a.u.)^3
     number of atoms/cell      =            3
     number of atomic types    =            3
     number of electrons       =        31.00
     number of Kohn-Sham states=           30
     kinetic-energy cutoff     =      50.0000  Ry
     charge density cutoff     =     200.0000  Ry
     scf convergence threshold =      1.0E-07
     mixing beta               =       0.7000
     number of iterations used =            8  plain     mixing
     Exchange-correlation= SLA  PW   PBX  PBC
                           (   1   4   3   4   0   0   0)

     celldm(1)=  11.800000  celldm(2)=   0.000000  celldm(3)=   0.000000
     celldm(4)=   0.000000  celldm(5)=   0.000000  celldm(6)=   0.000000

     crystal axes: (cart. coord. in units of alat)
               a(1) = (  -0.500000   0.000000   0.500000 )  
               a(2) = (   0.000000   0.500000   0.500000 )  
               a(3) = (  -0.500000   0.500000   0.000000 )  

     reciprocal axes: (cart. coord. in units 2 pi/alat)
               b(1) = ( -1.000000 -1.000000  1.000000 )  
               b(2) = (  1.000000  1.000000  1.000000 )  
               b(3) = ( -1.000000  1.000000 -1.000000 )  


     PseudoPot. # 1 for Cu read from file:
     ././Cu.UPF
     MD5 check sum: cfffd1f38ee05704b3e17f46f1730a6f
     Pseudo is Projector augmented-wave + core cor, Zval = 11.0
     Generated using &quot;atomic&quot; code by A. Dal Corso  v.6.3
     Shape of augmentation charge: PSQ
     Using radial grid of 1199 points,  6 beta functions with: 
                l(1) =   0
                l(2) =   0
                l(3) =   1
                l(4) =   1
                l(5) =   2
                l(6) =   2
     Q(r) pseudized with 0 coefficients 


     PseudoPot. # 2 for Pt read from file:
     ././Pt.UPF
     MD5 check sum: c5224e9cd7a5e36e81f2def9f50bb494
     Pseudo is Projector augmented-wave + core cor, Zval = 10.0
     Generated using &quot;atomic&quot; code by A. Dal Corso  v.6.3
     Shape of augmentation charge: PSQ
     Using radial grid of 1277 points,  6 beta functions with: 
                l(1) =   0
                l(2) =   0
                l(3) =   1
                l(4) =   1
                l(5) =   2
                l(6) =   2
     Q(r) pseudized with 0 coefficients 


     PseudoPot. # 3 for Ni read from file:
     ././Ni.UPF
     MD5 check sum: 5bc40517020091042a126ac2b4ecef1e
     Pseudo is Projector augmented-wave + core cor, Zval = 10.0
     Generated using "atomic" code by A. Dal Corso  v.5.0.2 svn rev. 9415
     Shape of augmentation charge: PSQ
     Using radial grid of 1195 points,  6 beta functions with: 
                l(1) =   0
                l(2) =   0
                l(3) =   1
                l(4) =   1
                l(5) =   2
                l(6) =   2
     Q(r) pseudized with 0 coefficients 


     atomic species   valence    mass     pseudopotential
        Cu            11.00    63.54600     Cu( 1.00)
        Pt            10.00   195.08000     Pt( 1.00)
        Ni            10.00    58.69000     Ni( 1.00)

     24 Sym. Ops. (no inversion) found


                                    s                        frac. trans.

      isym =  1     identity                                     

 cryst.   s( 1) = (     1          0          0      )
                  (     0          1          0      )
                  (     0          0          1      )

 cart.    s( 1) = (  1.0000000  0.0000000  0.0000000 )
                  (  0.0000000  1.0000000  0.0000000 )
                  (  0.0000000  0.0000000  1.0000000 )


      isym =  2     180 deg rotation - cart. axis [0,0,1]        

 cryst.   s( 2) = (     0          1         -1      )
                  (     1          0         -1      )
                  (     0          0         -1      )

 cart.    s( 2) = ( -1.0000000  0.0000000  0.0000000 )
                  (  0.0000000 -1.0000000  0.0000000 )
                  (  0.0000000  0.0000000  1.0000000 )


      isym =  3     180 deg rotation - cart. axis [0,1,0]        

 cryst.   s( 3) = (    -1          0          0      )
                  (    -1          0          1      )
                  (    -1          1          0      )

 cart.    s( 3) = ( -1.0000000  0.0000000  0.0000000 )
                  (  0.0000000  1.0000000  0.0000000 )
                  (  0.0000000  0.0000000 -1.0000000 )


      isym =  4     180 deg rotation - cart. axis [1,0,0]        

 cryst.   s( 4) = (     0         -1          1      )
                  (     0         -1          0      )
                  (     1         -1          0      )

 cart.    s( 4) = (  1.0000000  0.0000000  0.0000000 )
                  (  0.0000000 -1.0000000  0.0000000 )
                  (  0.0000000  0.0000000 -1.0000000 )


      isym =  5     120 deg rotation - cart. axis [-1,-1,-1]     

 cryst.   s( 5) = (    -1          0          1      )
                  (    -1          1          0      )
                  (    -1          0          0      )

 cart.    s( 5) = (  0.0000000  1.0000000  0.0000000 )
                  (  0.0000000  0.0000000  1.0000000 )
                  (  1.0000000  0.0000000  0.0000000 )


      isym =  6     120 deg rotation - cart. axis [-1,1,1]       

 cryst.   s( 6) = (     0          1          0      )
                  (     0          0          1      )
                  (     1          0          0      )

 cart.    s( 6) = (  0.0000000 -1.0000000  0.0000000 )
                  (  0.0000000  0.0000000  1.0000000 )
                  ( -1.0000000  0.0000000  0.0000000 )


      isym =  7     120 deg rotation - cart. axis [1,1,-1]       

 cryst.   s( 7) = (     1          0         -1      )
                  (     0          0         -1      )
                  (     0          1         -1      )

 cart.    s( 7) = (  0.0000000  1.0000000  0.0000000 )
                  (  0.0000000  0.0000000 -1.0000000 )
                  ( -1.0000000  0.0000000  0.0000000 )


      isym =  8     120 deg rotation - cart. axis [1,-1,1]       

 cryst.   s( 8) = (     0         -1          0      )
                  (     1         -1          0      )
                  (     0         -1          1      )

 cart.    s( 8) = (  0.0000000 -1.0000000  0.0000000 )
                  (  0.0000000  0.0000000 -1.0000000 )
                  (  1.0000000  0.0000000  0.0000000 )


      isym =  9     120 deg rotation - cart. axis [1,1,1]        

 cryst.   s( 9) = (     0          0         -1      )
                  (     0          1         -1      )
                  (     1          0         -1      )

 cart.    s( 9) = (  0.0000000  0.0000000  1.0000000 )
                  (  1.0000000  0.0000000  0.0000000 )
                  (  0.0000000  1.0000000  0.0000000 )


      isym = 10     120 deg rotation - cart. axis [-1,1,-1]      

 cryst.   s(10) = (    -1          1          0      )
                  (    -1          0          0      )
                  (    -1          0          1      )

 cart.    s(10) = (  0.0000000  0.0000000  1.0000000 )
                  ( -1.0000000  0.0000000  0.0000000 )
                  (  0.0000000 -1.0000000  0.0000000 )


      isym = 11     120 deg rotation - cart. axis [1,-1,-1]      

 cryst.   s(11) = (     0          0          1      )
                  (     1          0          0      )
                  (     0          1          0      )

 cart.    s(11) = (  0.0000000  0.0000000 -1.0000000 )
                  ( -1.0000000  0.0000000  0.0000000 )
                  (  0.0000000  1.0000000  0.0000000 )


      isym = 12     120 deg rotation - cart. axis [-1,-1,1]      

 cryst.   s(12) = (     1         -1          0      )
                  (     0         -1          1      )
                  (     0         -1          0      )

 cart.    s(12) = (  0.0000000  0.0000000 -1.0000000 )
                  (  1.0000000  0.0000000  0.0000000 )
                  (  0.0000000 -1.0000000  0.0000000 )


      isym = 13     inv. 180 deg rotation - cart. axis [1,1,0]   

 cryst.   s(13) = (     0          1          0      )
                  (     1          0          0      )
                  (     0          0          1      )

 cart.    s(13) = (  0.0000000 -1.0000000  0.0000000 )
                  ( -1.0000000  0.0000000  0.0000000 )
                  (  0.0000000  0.0000000  1.0000000 )


      isym = 14     inv. 180 deg rotation - cart. axis [1,-1,0]  

 cryst.   s(14) = (     1          0         -1      )
                  (     0          1         -1      )
                  (     0          0         -1      )

 cart.    s(14) = (  0.0000000  1.0000000  0.0000000 )
                  (  1.0000000  0.0000000  0.0000000 )
                  (  0.0000000  0.0000000  1.0000000 )


      isym = 15     inv.  90 deg rotation - cart. axis [0,0,-1]  

 cryst.   s(15) = (     0         -1          0      )
                  (     0         -1          1      )
                  (     1         -1          0      )

 cart.    s(15) = (  0.0000000 -1.0000000  0.0000000 )
                  (  1.0000000  0.0000000  0.0000000 )
                  (  0.0000000  0.0000000 -1.0000000 )


      isym = 16     inv.  90 deg rotation - cart. axis [0,0,1]   

 cryst.   s(16) = (    -1          0          1      )
                  (    -1          0          0      )
                  (    -1          1          0      )

 cart.    s(16) = (  0.0000000  1.0000000  0.0000000 )
                  ( -1.0000000  0.0000000  0.0000000 )
                  (  0.0000000  0.0000000 -1.0000000 )


      isym = 17     inv. 180 deg rotation - cart. axis [1,0,1]   

 cryst.   s(17) = (     1          0          0      )
                  (     0          0          1      )
                  (     0          1          0      )

 cart.    s(17) = (  0.0000000  0.0000000 -1.0000000 )
                  (  0.0000000  1.0000000  0.0000000 )
                  ( -1.0000000  0.0000000  0.0000000 )


      isym = 18     inv. 180 deg rotation - cart. axis [-1,0,1]  

 cryst.   s(18) = (    -1          0          0      )
                  (    -1          1          0      )
                  (    -1          0          1      )

 cart.    s(18) = (  0.0000000  0.0000000  1.0000000 )
                  (  0.0000000  1.0000000  0.0000000 )
                  (  1.0000000  0.0000000  0.0000000 )


      isym = 19     inv.  90 deg rotation - cart. axis [0,1,0]   

 cryst.   s(19) = (     0         -1          1      )
                  (     1         -1          0      )
                  (     0         -1          0      )

 cart.    s(19) = (  0.0000000  0.0000000 -1.0000000 )
                  (  0.0000000 -1.0000000  0.0000000 )
                  (  1.0000000  0.0000000  0.0000000 )


      isym = 20     inv.  90 deg rotation - cart. axis [0,-1,0]  

 cryst.   s(20) = (     0          1         -1      )
                  (     0          0         -1      )
                  (     1          0         -1      )

 cart.    s(20) = (  0.0000000  0.0000000  1.0000000 )
                  (  0.0000000 -1.0000000  0.0000000 )
                  ( -1.0000000  0.0000000  0.0000000 )


      isym = 21     inv. 180 deg rotation - cart. axis [0,1,1]   

 cryst.   s(21) = (     1         -1          0      )
                  (     0         -1          0      )
                  (     0         -1          1      )

 cart.    s(21) = (  1.0000000  0.0000000  0.0000000 )
                  (  0.0000000  0.0000000 -1.0000000 )
                  (  0.0000000 -1.0000000  0.0000000 )


      isym = 22     inv. 180 deg rotation - cart. axis [0,1,-1]  

 cryst.   s(22) = (     0          0          1      )
                  (     0          1          0      )
                  (     1          0          0      )

 cart.    s(22) = (  1.0000000  0.0000000  0.0000000 )
                  (  0.0000000  0.0000000  1.0000000 )
                  (  0.0000000  1.0000000  0.0000000 )


      isym = 23     inv.  90 deg rotation - cart. axis [-1,0,0]  

 cryst.   s(23) = (     0          0         -1      )
                  (     1          0         -1      )
                  (     0          1         -1      )

 cart.    s(23) = ( -1.0000000  0.0000000  0.0000000 )
                  (  0.0000000  0.0000000 -1.0000000 )
                  (  0.0000000  1.0000000  0.0000000 )


      isym = 24     inv.  90 deg rotation - cart. axis [1,0,0]   

 cryst.   s(24) = (    -1          1          0      )
                  (    -1          0          1      )
                  (    -1          0          0      )

 cart.    s(24) = ( -1.0000000  0.0000000  0.0000000 )
                  (  0.0000000  0.0000000  1.0000000 )
                  (  0.0000000 -1.0000000  0.0000000 )


     point group T_d (-43m) 
     there are  5 classes
     the character table:

       E     8C3   3C2   6S4   6s_d 
A_1    1.00  1.00  1.00  1.00  1.00
A_2    1.00  1.00  1.00 -1.00 -1.00
E      2.00 -1.00  2.00  0.00  0.00
T_1    3.00  0.00 -1.00  1.00 -1.00
T_2    3.00  0.00 -1.00 -1.00  1.00

     the symmetry operations in each class and the name of the first element:

     E        1
          identity                                               
     8C3      5    7    8    6   12    9   10   11
          120 deg rotation - cart. axis [-1,-1,-1]               
     3C2      2    3    4
          180 deg rotation - cart. axis [0,0,1]                  
     6S4     15   16   20   19   23   24
          inv.  90 deg rotation - cart. axis [0,0,-1]            
     6s_d    13   14   17   18   21   22
          inv. 180 deg rotation - cart. axis [1,1,0]             

   Cartesian axes

     site n.     atom                  positions (alat units)
         1           Cu  tau(   1) = (   0.0000000   0.0000000   0.0000000  )
         2           Pt  tau(   2) = (   0.5000000   0.5000000   0.5000000  )
         3           Ni  tau(   3) = (   0.2500000   0.2500000   0.2500000  )

   Crystallographic axes

     site n.     atom                  positions (cryst. coord.)
         1           Cu  tau(   1) = (  0.0000000  0.0000000  0.0000000  )
         2           Pt  tau(   2) = ( -0.5000000  1.5000000 -0.5000000  )
         3           Ni  tau(   3) = ( -0.2500000  0.7500000 -0.2500000  )

     number of k points=    29  Methfessel-Paxton smearing, width (Ry)=  0.0050
                       cart. coord. in units 2pi/alat
        k(    1) = (   0.0000000   0.0000000   0.0000000), wk =   0.0039062
        k(    2) = (  -0.1250000   0.1250000  -0.1250000), wk =   0.0312500
        k(    3) = (  -0.2500000   0.2500000  -0.2500000), wk =   0.0312500
        k(    4) = (  -0.3750000   0.3750000  -0.3750000), wk =   0.0312500
        k(    5) = (   0.5000000  -0.5000000   0.5000000), wk =   0.0156250
        k(    6) = (   0.0000000   0.2500000   0.0000000), wk =   0.0234375
        k(    7) = (  -0.1250000   0.3750000  -0.1250000), wk =   0.0937500
        k(    8) = (  -0.2500000   0.5000000  -0.2500000), wk =   0.0937500
        k(    9) = (   0.6250000  -0.3750000   0.6250000), wk =   0.0937500
        k(   10) = (   0.5000000  -0.2500000   0.5000000), wk =   0.0937500
        k(   11) = (   0.3750000  -0.1250000   0.3750000), wk =   0.0937500
        k(   12) = (   0.2500000   0.0000000   0.2500000), wk =   0.0468750
        k(   13) = (   0.0000000   0.5000000   0.0000000), wk =   0.0234375
        k(   14) = (  -0.1250000   0.6250000  -0.1250000), wk =   0.0937500
        k(   15) = (   0.7500000  -0.2500000   0.7500000), wk =   0.0937500
        k(   16) = (   0.6250000  -0.1250000   0.6250000), wk =   0.0937500
        k(   17) = (   0.5000000   0.0000000   0.5000000), wk =   0.0468750
        k(   18) = (   0.0000000   0.7500000   0.0000000), wk =   0.0234375
        k(   19) = (   0.8750000  -0.1250000   0.8750000), wk =   0.0937500
        k(   20) = (   0.7500000   0.0000000   0.7500000), wk =   0.0468750
        k(   21) = (   0.0000000  -1.0000000   0.0000000), wk =   0.0117188
        k(   22) = (  -0.2500000   0.5000000   0.0000000), wk =   0.0937500
        k(   23) = (   0.6250000  -0.3750000   0.8750000), wk =   0.1875000
        k(   24) = (   0.5000000  -0.2500000   0.7500000), wk =   0.0937500
        k(   25) = (   0.7500000  -0.2500000   1.0000000), wk =   0.0937500
        k(   26) = (   0.6250000  -0.1250000   0.8750000), wk =   0.1875000
        k(   27) = (   0.5000000   0.0000000   0.7500000), wk =   0.0937500
        k(   28) = (  -0.2500000  -1.0000000   0.0000000), wk =   0.0468750
        k(   29) = (  -0.5000000  -1.0000000   0.0000000), wk =   0.0234375

                       cryst. coord.
        k(    1) = (   0.0000000   0.0000000   0.0000000), wk =   0.0039062
        k(    2) = (   0.0000000   0.0000000   0.1250000), wk =   0.0312500
        k(    3) = (   0.0000000   0.0000000   0.2500000), wk =   0.0312500
        k(    4) = (   0.0000000   0.0000000   0.3750000), wk =   0.0312500
        k(    5) = (   0.0000000   0.0000000  -0.5000000), wk =   0.0156250
        k(    6) = (   0.0000000   0.1250000   0.1250000), wk =   0.0234375
        k(    7) = (   0.0000000   0.1250000   0.2500000), wk =   0.0937500
        k(    8) = (   0.0000000   0.1250000   0.3750000), wk =   0.0937500
        k(    9) = (   0.0000000   0.1250000  -0.5000000), wk =   0.0937500
        k(   10) = (   0.0000000   0.1250000  -0.3750000), wk =   0.0937500
        k(   11) = (   0.0000000   0.1250000  -0.2500000), wk =   0.0937500
        k(   12) = (   0.0000000   0.1250000  -0.1250000), wk =   0.0468750
        k(   13) = (   0.0000000   0.2500000   0.2500000), wk =   0.0234375
        k(   14) = (   0.0000000   0.2500000   0.3750000), wk =   0.0937500
        k(   15) = (   0.0000000   0.2500000  -0.5000000), wk =   0.0937500
        k(   16) = (   0.0000000   0.2500000  -0.3750000), wk =   0.0937500
        k(   17) = (   0.0000000   0.2500000  -0.2500000), wk =   0.0468750
        k(   18) = (   0.0000000   0.3750000   0.3750000), wk =   0.0234375
        k(   19) = (   0.0000000   0.3750000  -0.5000000), wk =   0.0937500
        k(   20) = (   0.0000000   0.3750000  -0.3750000), wk =   0.0468750
        k(   21) = (   0.0000000  -0.5000000  -0.5000000), wk =   0.0117188
        k(   22) = (   0.1250000   0.2500000   0.3750000), wk =   0.0937500
        k(   23) = (   0.1250000   0.2500000  -0.5000000), wk =   0.1875000
        k(   24) = (   0.1250000   0.2500000  -0.3750000), wk =   0.0937500
        k(   25) = (   0.1250000   0.3750000  -0.5000000), wk =   0.0937500
        k(   26) = (   0.1250000   0.3750000  -0.3750000), wk =   0.1875000
        k(   27) = (   0.1250000   0.3750000  -0.2500000), wk =   0.0937500
        k(   28) = (   0.1250000  -0.5000000  -0.3750000), wk =   0.0468750
        k(   29) = (   0.2500000  -0.5000000  -0.2500000), wk =   0.0234375

     Dense  grid:    19603 G-vectors     FFT dimensions: (  40,  40,  40)

     Dynamical RAM for                 wfc:       1.12 MB

     Dynamical RAM for     wfc (w. buffer):      33.67 MB

     Dynamical RAM for           str. fact:       0.90 MB

     Dynamical RAM for           local pot:       0.00 MB

     Dynamical RAM for          nlocal pot:       2.02 MB

     Dynamical RAM for                qrad:       3.41 MB

     Dynamical RAM for          rho,v,vnew:       2.36 MB

     Dynamical RAM for               rhoin:       0.79 MB

     Dynamical RAM for            rho*nmix:       4.79 MB

     Dynamical RAM for           G-vectors:       1.27 MB

     Dynamical RAM for          h,s,v(r/c):       0.16 MB

     Dynamical RAM for          <psi|beta>:       0.02 MB

     Dynamical RAM for                 psi:       2.24 MB

     Dynamical RAM for                hpsi:       2.24 MB

     Dynamical RAM for                spsi:       2.24 MB

     Dynamical RAM for      wfcinit/wfcrot:       2.27 MB

     Dynamical RAM for           addusdens:      55.94 MB

     Estimated static dynamical RAM per process >      52.84 MB

     Estimated max dynamical RAM per process >     108.78 MB

     Check: negative core charge=   -0.000005

     Initial potential from superposition of free atoms

     starting charge   30.99935, renormalised to   31.00000
     Starting wfcs are   27 randomized atomic wfcs +    3 random wfcs
     Checking if some PAW data can be deallocated... 

     total cpu time spent up to now is        2.9 secs

     Self-consistent Calculation

     iteration #  1     ecut=    50.00 Ry     beta= 0.70
     Davidson diagonalization with overlap
     ethr =  1.00E-02,  avg # of iterations =  5.4

     total cpu time spent up to now is        9.5 secs

     total energy              =   -1144.31055711 Ry
     estimated scf accuracy    <       2.07810054 Ry

     iteration #  2     ecut=    50.00 Ry     beta= 0.70
     Davidson diagonalization with overlap
     ethr =  6.70E-03,  avg # of iterations =  2.1

     total cpu time spent up to now is       15.4 secs

     total energy              =   -1142.88339933 Ry
     estimated scf accuracy    <      55.42438440 Ry

     iteration #  3     ecut=    50.00 Ry     beta= 0.70
     Davidson diagonalization with overlap
     ethr =  6.70E-03,  avg # of iterations =  2.0

     total cpu time spent up to now is       20.9 secs

     total energy              =   -1145.79681303 Ry
     estimated scf accuracy    <       1.13802025 Ry

     iteration #  4     ecut=    50.00 Ry     beta= 0.70
     Davidson diagonalization with overlap
     ethr =  3.67E-03,  avg # of iterations =  1.0

     total cpu time spent up to now is       25.8 secs

     total energy              =   -1145.91440019 Ry
     estimated scf accuracy    <       0.41752570 Ry

     iteration #  5     ecut=    50.00 Ry     beta= 0.70
     Davidson diagonalization with overlap
     ethr =  1.35E-03,  avg # of iterations =  1.0

     total cpu time spent up to now is       30.7 secs

     total energy              =   -1145.92173032 Ry
     estimated scf accuracy    <       0.11358580 Ry

     iteration #  6     ecut=    50.00 Ry     beta= 0.70
     Davidson diagonalization with overlap
     ethr =  3.66E-04,  avg # of iterations =  1.4

     total cpu time spent up to now is       35.6 secs

     total energy              =   -1145.92654662 Ry
     estimated scf accuracy    <       0.00713045 Ry

     iteration #  7     ecut=    50.00 Ry     beta= 0.70
     Davidson diagonalization with overlap
     ethr =  2.30E-05,  avg # of iterations =  5.6

     total cpu time spent up to now is       41.5 secs

     total energy              =   -1145.92788380 Ry
     estimated scf accuracy    <       0.00570493 Ry

     iteration #  8     ecut=    50.00 Ry     beta= 0.70
     Davidson diagonalization with overlap
     ethr =  1.84E-05,  avg # of iterations =  1.1

     total cpu time spent up to now is       46.4 secs

     total energy              =   -1145.92830962 Ry
     estimated scf accuracy    <       0.00017567 Ry

     iteration #  9     ecut=    50.00 Ry     beta= 0.70
     Davidson diagonalization with overlap
     ethr =  5.67E-07,  avg # of iterations =  4.5

     total cpu time spent up to now is       52.7 secs

     total energy              =   -1145.92841593 Ry
     estimated scf accuracy    <       0.00006637 Ry

     iteration # 10     ecut=    50.00 Ry     beta= 0.70
     Davidson diagonalization with overlap
     ethr =  2.14E-07,  avg # of iterations =  1.4

     total cpu time spent up to now is       57.6 secs

     total energy              =   -1145.92839922 Ry
     estimated scf accuracy    <       0.00007530 Ry

     iteration # 11     ecut=    50.00 Ry     beta= 0.70
     Davidson diagonalization with overlap
     ethr =  2.14E-07,  avg # of iterations =  1.1

     total cpu time spent up to now is       62.5 secs

     total energy              =   -1145.92840417 Ry
     estimated scf accuracy    <       0.00000320 Ry

     iteration # 12     ecut=    50.00 Ry     beta= 0.70
     Davidson diagonalization with overlap
     ethr =  1.03E-08,  avg # of iterations =  2.6

     total cpu time spent up to now is       67.7 secs

     total energy              =   -1145.92840497 Ry
     estimated scf accuracy    <       0.00000029 Ry

     iteration # 13     ecut=    50.00 Ry     beta= 0.70
     Davidson diagonalization with overlap
     ethr =  9.21E-10,  avg # of iterations =  2.8

     total cpu time spent up to now is       73.1 secs

     End of self-consistent calculation

          k = 0.0000 0.0000 0.0000 (  2445 PWs)   bands (ev):

     0.8780   4.2577   4.2577   4.5396   4.5396   4.5396   5.3680   5.3680
     5.3680   6.2423   6.2423   6.4881   6.4881   6.4881   6.8568   6.8568
    13.6688  13.6688  13.6688  13.8411  15.5932  15.6358  15.6358  15.6358
    18.2369  18.2369  18.2369  21.2956  21.9653  21.9653

     occupation numbers 
     1.0000   1.0000   1.0000   1.0000   1.0000   1.0000   1.0000   1.0000
     1.0000   1.0000   1.0000   1.0000   1.0000   1.0000   1.0299   1.0299
    -0.0000  -0.0000  -0.0000  -0.0000  -0.0000  -0.0000  -0.0000  -0.0000
    -0.0000  -0.0000  -0.0000  -0.0000  -0.0000  -0.0000

          k =-0.1250 0.1250-0.1250 (  2475 PWs)   bands (ev):

     1.0713   4.3055   4.3055   4.5080   4.5821   4.5821   5.3487   5.3487
     5.4156   6.1648   6.1648   6.3373   6.4799   6.4799   6.8663   6.8663
    11.6712  13.5156  13.5156  14.3339  15.6356  15.6771  15.6771  16.5625
    18.2181  18.2181  18.8531  22.4550  22.6439  22.6439

     occupation numbers 
     1.0000   1.0000   1.0000   1.0000   1.0000   1.0000   1.0000   1.0000
     1.0000   1.0000   1.0000   1.0000   1.0000   1.0000   1.0345   1.0345
    -0.0000  -0.0000  -0.0000  -0.0000  -0.0000  -0.0000  -0.0000  -0.0000
    -0.0000  -0.0000  -0.0000  -0.0000  -0.0000  -0.0000

          k =-0.2500 0.2500-0.2500 (  2463 PWs)   bands (ev):

     1.6293   4.4403   4.4403   4.4663   4.6892   4.6892   5.3012   5.3012
     5.4894   5.9460   5.9525   5.9525   6.4873   6.4873   6.8685   6.8685
     9.5358  13.2284  13.2284  13.9580  15.4699  15.4699  15.9347  17.3287
    18.7749  18.7749  21.4513  24.1674  24.1674  24.8652

     occupation numbers 
     1.0000   1.0000   1.0000   1.0000   1.0000   1.0000   1.0000   1.0000
     1.0000   1.0000   1.0000   1.0000   1.0000   1.0000   1.0351   1.0351
    -0.0000  -0.0000  -0.0000  -0.0000  -0.0000  -0.0000  -0.0000  -0.0000
    -0.0000  -0.0000  -0.0000  -0.0000  -0.0000  -0.0000

          k =-0.3750 0.3750-0.3750 (  2458 PWs)   bands (ev):

     2.4500   4.4540   4.6192   4.6192   4.8071   4.8071   5.2368   5.2567
     5.2567   5.6829   5.6880   5.6880   6.5186   6.5186   6.8454   6.8454
     7.9290  12.9960  12.9960  13.7228  15.1226  15.1226  15.5503  19.2682
    20.0221  20.0221  24.0139  24.4054  24.4054  25.4215

     occupation numbers 
     1.0000   1.0000   1.0000   1.0000   1.0000   1.0000   1.0000   1.0000
     1.0000   1.0000   1.0000   1.0000   1.0000   1.0000   1.0223   1.0223
    -0.0000  -0.0000  -0.0000  -0.0000  -0.0000  -0.0000  -0.0000  -0.0000
    -0.0000  -0.0000  -0.0000  -0.0000  -0.0000  -0.0000

          k = 0.5000-0.5000 0.5000 (  2452 PWs)   bands (ev):

     3.0309   4.3773   4.7180   4.7180   4.8625   4.8625   4.8827   5.2499
     5.2499   5.5375   5.5375   5.6754   6.5398   6.5398   6.8270   6.8270
     7.3240  12.9072  12.9072  13.6442  14.9768  14.9768  15.4110  21.0875
    21.0875  21.1596  22.3893  23.1071  23.1071  27.1919

     occupation numbers 
     1.0000   1.0000   1.0000   1.0000   1.0000   1.0000   1.0000   1.0000
     1.0000   1.0000   1.0000   1.0000   1.0000   1.0000   1.0113   1.0113
    -0.0000  -0.0000  -0.0000  -0.0000  -0.0000  -0.0000  -0.0000  -0.0000
    -0.0000  -0.0000  -0.0000  -0.0000  -0.0000  -0.0000

          k = 0.0000 0.2500 0.0000 (  2469 PWs)   bands (ev):

     1.1346   4.3076   4.3237   4.4720   4.6071   4.6071   5.2919   5.4060
     5.4060   6.0611   6.2389   6.4281   6.4392   6.4392   6.8031   6.9030
    12.2715  12.6362  12.6362  13.9359  15.7355  16.2414  16.4753  16.4753
    18.0905  19.0338  19.0338  21.6526  21.9911  24.1607

     occupation numbers 
     1.0000   1.0000   1.0000   1.0000   1.0000   1.0000   1.0000   1.0000
     1.0000   1.0000   1.0000   1.0000   1.0000   1.0000   1.0034   0.9817
    -0.0000  -0.0000  -0.0000  -0.0000  -0.0000  -0.0000  -0.0000  -0.0000
    -0.0000  -0.0000  -0.0000  -0.0000  -0.0000  -0.0000

          k =-0.1250 0.3750-0.1250 (  2465 PWs)   bands (ev):

     1.5682   4.3487   4.4277   4.4450   4.6942   4.7095   5.1700   5.4201
     5.4594   5.9073   6.1143   6.1995   6.4514   6.4753   6.7660   6.9198
    10.3105  12.0299  12.6318  13.4906  15.6006  16.2826  16.7887  17.4359
    18.8486  19.7179  20.6530  22.7357  22.8733  26.1356

     occupation numbers 
     1.0000   1.0000   1.0000   1.0000   1.0000   1.0000   1.0000   1.0000
     1.0000   1.0000   1.0000   1.0000   1.0000   1.0000   1.0003   0.8820
    -0.0000  -0.0000  -0.0000  -0.0000  -0.0000  -0.0000  -0.0000  -0.0000
    -0.0000  -0.0000  -0.0000  -0.0000  -0.0000  -0.0000

          k =-0.2500 0.5000-0.2500 (  2445 PWs)   bands (ev):

     2.3049   4.3381   4.5108   4.5823   4.8046   4.8655   5.0689   5.3895
     5.4252   5.7377   5.8376   5.9052   6.5004   6.5010   6.7676   6.9086
     8.4342  11.7987  11.9967  13.5281  15.6486  16.5145  16.9278  17.4592
    20.2759  20.7398  23.2742  23.6400  24.5023  25.6548

     occupation numbers 
     1.0000   1.0000   1.0000   1.0000   1.0000   1.0000   1.0000   1.0000
     1.0000   1.0000   1.0000   1.0000   1.0000   1.0000   1.0003   0.9554
    -0.0000  -0.0000  -0.0000  -0.0000  -0.0000  -0.0000  -0.0000  -0.0000
    -0.0000  -0.0000  -0.0000  -0.0000  -0.0000  -0.0000

          k = 0.6250-0.3750 0.6250 (  2451 PWs)   bands (ev):

     3.0660   4.2067   4.5824   4.6988   4.8409   4.9115   5.1928   5.2629
     5.3318   5.5577   5.6159   5.7672   6.5049   6.5424   6.8306   6.8482
     7.3798  11.3994  11.9923  13.5832  15.4566  16.0680  17.1918  18.9413
    21.1954  21.3586  22.7090  23.1500  25.1915  26.1959

     occupation numbers 
     1.0000   1.0000   1.0000   1.0000   1.0000   1.0000   1.0000   1.0000
     1.0000   1.0000   1.0000   1.0000   1.0000   1.0000   1.0131   1.0242
    -0.0000  -0.0000  -0.0000  -0.0000  -0.0000  -0.0000  -0.0000  -0.0000
    -0.0000  -0.0000  -0.0000  -0.0000  -0.0000  -0.0000

          k = 0.5000-0.2500 0.5000 (  2445 PWs)   bands (ev):

     2.8522   4.2913   4.6058   4.6814   4.8640   4.9149   5.0953   5.2059
     5.3808   5.5658   5.6419   5.8353   6.4860   6.5630   6.7604   6.9059
     7.6315  11.0553  12.5961  13.8075  15.3283  15.6697  17.4046  19.2317
    19.6379  21.1442  23.2609  24.2990  24.8148  25.5226

     occupation numbers 
     1.0000   1.0000   1.0000   1.0000   1.0000   1.0000   1.0000   1.0000
     1.0000   1.0000   1.0000   1.0000   1.0000   1.0000   1.0002   0.9689
    -0.0000  -0.0000  -0.0000  -0.0000  -0.0000  -0.0000  -0.0000  -0.0000
    -0.0000  -0.0000  -0.0000  -0.0000  -0.0000  -0.0000

          k = 0.3750-0.1250 0.3750 (  2463 PWs)   bands (ev):

     2.0354   4.3837   4.4925   4.5342   4.7790   4.8231   5.1876   5.2918
     5.4335   5.7831   5.7941   6.0429   6.4791   6.5191   6.7364   6.9405
     9.0172  11.0594  13.5173  14.2620  15.2504  15.3361  16.9843  18.1273
    18.2701  21.1172  22.2906  23.3654  24.2568  25.9667

     occupation numbers 
     1.0000   1.0000   1.0000   1.0000   1.0000   1.0000   1.0000   1.0000
     1.0000   1.0000   1.0000   1.0000   1.0000   1.0000   1.0000   0.6797
    -0.0000  -0.0000  -0.0000  -0.0000  -0.0000  -0.0000  -0.0000  -0.0000
    -0.0000  -0.0000  -0.0000  -0.0000  -0.0000  -0.0000

          k = 0.2500 0.0000 0.2500 (  2459 PWs)   bands (ev):

     1.3856   4.3735   4.3821   4.4460   4.6434   4.6795   5.2639   5.4070
     5.4179   6.0022   6.0331   6.2616   6.4517   6.4851   6.7923   6.9235
    10.7722  11.6750  14.3788  14.7512  14.8977  15.1492  16.1172  17.6424
    17.7778  19.5607  20.2051  21.9341  24.1313  24.3711

     occupation numbers 
     1.0000   1.0000   1.0000   1.0000   1.0000   1.0000   1.0000   1.0000
     1.0000   1.0000   1.0000   1.0000   1.0000   1.0000   1.0018   0.8522
    -0.0000  -0.0000  -0.0000  -0.0000  -0.0000  -0.0000  -0.0000  -0.0000
    -0.0000  -0.0000  -0.0000  -0.0000  -0.0000  -0.0000

          k = 0.0000 0.5000 0.0000 (  2477 PWs)   bands (ev):

     1.8599   4.2356   4.4352   4.4983   4.7549   4.7549   5.0071   5.4947
     5.4947   5.8872   6.2295   6.3688   6.4135   6.4135   6.6589   6.9198
    11.0832  11.0832  11.2931  11.7304  14.9691  17.8867  17.8867  19.0932
    19.9192  20.8854  20.8854  22.0317  22.0731  27.1347

     occupation numbers 
     1.0000   1.0000   1.0000   1.0000   1.0000   1.0000   1.0000   1.0000
     1.0000   1.0000   1.0000   1.0000   1.0000   1.0000   1.0000   0.8823
    -0.0000  -0.0000  -0.0000  -0.0000  -0.0000  -0.0000  -0.0000  -0.0000
    -0.0000  -0.0000  -0.0000  -0.0000  -0.0000  -0.0000

          k =-0.1250 0.6250-0.1250 (  2450 PWs)   bands (ev):

     2.4530   4.1651   4.3600   4.6167   4.8423   4.8429   4.9918   5.4897
     5.5122   5.8513   6.0811   6.2231   6.4548   6.5110   6.6797   6.9300
     9.1669  10.4670  10.5912  12.3044  15.1958  17.8846  18.2250  19.8685
    21.1498  21.7374  22.4790  22.7173  23.5519  25.4523

     occupation numbers 
     1.0000   1.0000   1.0000   1.0000   1.0000   1.0000   1.0000   1.0000
     1.0000   1.0000   1.0000   1.0000   1.0000   1.0000   1.0000   0.7924
    -0.0000  -0.0000  -0.0000  -0.0000  -0.0000  -0.0000  -0.0000  -0.0000
    -0.0000  -0.0000  -0.0000  -0.0000  -0.0000  -0.0000

          k = 0.7500-0.2500 0.7500 (  2454 PWs)   bands (ev):

     3.1822   4.0461   4.3316   4.7009   4.7828   4.9772   5.1731   5.4133
     5.6134   5.7690   5.7729   6.0836   6.4150   6.6200   6.8433   6.9244
     7.6167   9.6542  10.6795  12.8478  16.4062  17.4820  17.9200  19.7539
    21.4494  21.6662  23.1467  23.3076  24.9911  26.1768

     occupation numbers 
     1.0000   1.0000   1.0000   1.0000   1.0000   1.0000   1.0000   1.0000
     1.0000   1.0000   1.0000   1.0000   1.0000   1.0000   1.0209   0.8444
    -0.0000  -0.0000  -0.0000  -0.0000  -0.0000  -0.0000  -0.0000  -0.0000
    -0.0000  -0.0000  -0.0000  -0.0000  -0.0000  -0.0000

          k = 0.6250-0.1250 0.6250 (  2447 PWs)   bands (ev):

     3.3680   4.0589   4.4585   4.6670   4.7154   5.0690   5.2454   5.3533
     5.4573   5.6052   5.7607   6.0092   6.4151   6.5857   6.8413   6.9453
     7.5197   9.1438  11.3234  13.2144  16.8383  17.4556  18.4465  19.1036
    19.5828  20.5099  23.7374  24.9838  25.5224  26.1973

     occupation numbers 
     1.0000   1.0000   1.0000   1.0000   1.0000   1.0000   1.0000   1.0000
     1.0000   1.0000   1.0000   1.0000   1.0000   1.0000   1.0196   0.6241
    -0.0000  -0.0000  -0.0000  -0.0000  -0.0000  -0.0000  -0.0000  -0.0000
    -0.0000  -0.0000  -0.0000  -0.0000  -0.0000  -0.0000

          k = 0.5000 0.0000 0.5000 (  2437 PWs)   bands (ev):

     2.7046   4.2801   4.5089   4.6547   4.8518   4.9694   5.1523   5.1715
     5.4444   5.5923   5.7359   6.0732   6.4459   6.5935   6.6716   6.9709
     8.6138   9.2625  12.3626  13.6691  16.4400  16.5955  17.2777  18.3650
    19.9738  21.0477  22.4102  24.3094  24.7101  26.5466

     occupation numbers 
     1.0000   1.0000   1.0000   1.0000   1.0000   1.0000   1.0000   1.0000
     1.0000   1.0000   1.0000   1.0000   1.0000   1.0000   1.0000   0.3126
    -0.0000  -0.0000  -0.0000  -0.0000  -0.0000  -0.0000  -0.0000  -0.0000
    -0.0000  -0.0000  -0.0000  -0.0000  -0.0000  -0.0000

          k = 0.0000 0.7500 0.0000 (  2450 PWs)   bands (ev):

     2.8448   3.9998   4.2519   4.7046   4.8768   4.8768   5.0229   5.5174
     5.5174   5.9183   6.2156   6.2884   6.4878   6.6577   6.6577   6.9704
     9.0369   9.7633   9.7633  11.2866  14.5777  19.6483  19.6483  21.5623
    22.1988  22.3701  22.8264  22.8264  23.2004  25.3958

     occupation numbers 
     1.0000   1.0000   1.0000   1.0000   1.0000   1.0000   1.0000   1.0000
     1.0000   1.0000   1.0000   1.0000   1.0000   1.0000   1.0000   0.3180
    -0.0000  -0.0000  -0.0000  -0.0000  -0.0000  -0.0000  -0.0000  -0.0000
    -0.0000  -0.0000  -0.0000  -0.0000  -0.0000  -0.0000

          k = 0.8750-0.1250 0.8750 (  2448 PWs)   bands (ev):

     3.3430   3.8814   4.2215   4.7516   4.8274   4.9682   5.1330   5.4602
     5.6461   5.9021   6.1313   6.2237   6.3325   6.8476   6.8771   7.0983
     8.0382   8.6136   9.6127  11.9553  14.9446  19.5794  19.9025  21.5198
    21.7125  22.8443  23.4094  23.4924  24.4954  25.2597

     occupation numbers 
     1.0000   1.0000   1.0000   1.0000   1.0000   1.0000   1.0000   1.0000
     1.0000   1.0000   1.0000   1.0000   1.0000   1.0238   1.0345  -0.0057
    -0.0000  -0.0000  -0.0000  -0.0000  -0.0000  -0.0000  -0.0000  -0.0000
    -0.0000  -0.0000  -0.0000  -0.0000  -0.0000  -0.0000

          k = 0.7500 0.0000 0.7500 (  2440 PWs)   bands (ev):

     3.7316   3.7894   4.2809   4.6457   4.7360   5.1026   5.2009   5.3608
     5.7782   5.7932   5.9554   6.1250   6.3370   6.9256   6.9543   7.0380
     7.6233   7.8753  10.2266  12.6779  16.3048  18.8325  19.3047  19.5734
    19.9863  22.9083  23.2944  24.6753  25.1081  26.5399

     occupation numbers 
     1.0000   1.0000   1.0000   1.0000   1.0000   1.0000   1.0000   1.0000
     1.0000   1.0000   1.0000   1.0000   1.0000   0.8337   0.5127  -0.0354
    -0.0000  -0.0000  -0.0000  -0.0000  -0.0000  -0.0000  -0.0000  -0.0000
    -0.0000  -0.0000  -0.0000  -0.0000  -0.0000  -0.0000

          k = 0.0000-1.0000 0.0000 (  2450 PWs)   bands (ev):

     3.4378   3.7585   4.2274   4.8046   4.9211   4.9211   5.1905   5.4954
     5.4954   5.9616   6.2046   6.2221   6.4075   6.9202   6.9202   7.3980
     7.4894   9.1511   9.1511  11.2080  14.4688  21.0918  21.0918  22.2731
    22.3967  22.7675  22.7675  23.1125  25.1535  25.3379

     occupation numbers 
     1.0000   1.0000   1.0000   1.0000   1.0000   1.0000   1.0000   1.0000
     1.0000   1.0000   1.0000   1.0000   1.0000   0.8793   0.8793  -0.0000
    -0.0000  -0.0000  -0.0000  -0.0000  -0.0000  -0.0000  -0.0000  -0.0000
    -0.0000  -0.0000  -0.0000  -0.0000  -0.0000  -0.0000

          k =-0.2500 0.5000 0.0000 (  2460 PWs)   bands (ev):

     2.0895   4.2941   4.4354   4.5633   4.7886   4.8354   5.0331   5.4243
     5.4652   5.8311   5.9246   6.1722   6.4600   6.5154   6.6839   6.9425
     9.6015  10.3215  12.0702  13.6499  15.7368  15.9488  17.6233  18.5828
    19.4071  21.3835  22.2384  22.4568  23.7687  25.5380

     occupation numbers 
     1.0000   1.0000   1.0000   1.0000   1.0000   1.0000   1.0000   1.0000
     1.0000   1.0000   1.0000   1.0000   1.0000   1.0000   1.0000   0.6572
    -0.0000  -0.0000  -0.0000  -0.0000  -0.0000  -0.0000  -0.0000  -0.0000
    -0.0000  -0.0000  -0.0000  -0.0000  -0.0000  -0.0000

          k = 0.6250-0.3750 0.8750 (  2449 PWs)   bands (ev):

     2.8359   4.2162   4.4094   4.6953   4.8618   4.8968   5.1316   5.3379
     5.4970   5.6487   5.7445   6.0623   6.4303   6.5946   6.7295   6.9447
     8.1054   9.9325  11.1723  14.2546  15.2992  16.7837  18.0194  19.1069
    20.3200  21.2080  23.1772  23.7546  24.7238  25.8093

     occupation numbers 
     1.0000   1.0000   1.0000   1.0000   1.0000   1.0000   1.0000   1.0000
     1.0000   1.0000   1.0000   1.0000   1.0000   1.0000   1.0000   0.6304
    -0.0000  -0.0000  -0.0000  -0.0000  -0.0000  -0.0000  -0.0000  -0.0000
    -0.0000  -0.0000  -0.0000  -0.0000  -0.0000  -0.0000

          k = 0.5000-0.2500 0.7500 (  2448 PWs)   bands (ev):

     3.3673   4.0216   4.4477   4.6756   4.8779   4.9463   5.2639   5.3013
     5.4529   5.5830   5.7770   5.9272   6.4115   6.6542   6.8214   6.9183
     7.2940  10.0156  10.7205  14.4426  15.0093  17.9327  18.3705  19.0290
    19.4250  21.7248  22.7525  25.2326  25.5027  25.7758

     occupation numbers 
     1.0000   1.0000   1.0000   1.0000   1.0000   1.0000   1.0000   1.0000
     1.0000   1.0000   1.0000   1.0000   1.0000   1.0000   1.0088   0.8937
    -0.0000  -0.0000  -0.0000  -0.0000  -0.0000  -0.0000  -0.0000  -0.0000
    -0.0000  -0.0000  -0.0000  -0.0000  -0.0000  -0.0000

          k = 0.7500-0.2500 1.0000 (  2435 PWs)   bands (ev):

     3.0305   4.0653   4.2498   4.7002   4.8234   4.9501   5.0978   5.4608
     5.5896   5.8373   5.9481   6.2236   6.3586   6.6956   6.7716   6.9720
     8.6184   9.1337   9.7181  12.9741  15.3678  17.3864  19.8526  20.7414
    21.5044  21.7892  22.5494  23.8128  24.3645  25.5384

     occupation numbers 
     1.0000   1.0000   1.0000   1.0000   1.0000   1.0000   1.0000   1.0000
     1.0000   1.0000   1.0000   1.0000   1.0000   1.0000   1.0005   0.2994
    -0.0000  -0.0000  -0.0000  -0.0000  -0.0000  -0.0000  -0.0000  -0.0000
    -0.0000  -0.0000  -0.0000  -0.0000  -0.0000  -0.0000

          k = 0.6250-0.1250 0.8750 (  2447 PWs)   bands (ev):

     3.5955   3.9213   4.2692   4.6050   4.8465   5.0787   5.1919   5.3835
     5.6022   5.7746   5.8980   6.1726   6.3090   6.8764   6.9475   7.0976
     7.4737   8.6183   9.4826  13.8559  16.4323  16.7970  18.9070  20.1870
    21.5501  22.2994  22.9257  24.3980  25.0601  25.6056

     occupation numbers 
     1.0000   1.0000   1.0000   1.0000   1.0000   1.0000   1.0000   1.0000
     1.0000   1.0000   1.0000   1.0000   1.0000   1.0348   0.5969  -0.0059
    -0.0000  -0.0000  -0.0000  -0.0000  -0.0000  -0.0000  -0.0000  -0.0000
    -0.0000  -0.0000  -0.0000  -0.0000  -0.0000  -0.0000

          k = 0.5000 0.0000 0.7500 (  2462 PWs)   bands (ev):

     3.4393   4.0492   4.3331   4.6002   4.8918   5.0478   5.2216   5.3221
     5.4535   5.7299   5.8193   6.1381   6.3420   6.7174   6.8534   6.9837
     7.9943   8.3868  10.1671  14.4911  15.7938  17.2567  18.5048  19.8136
    20.2857  21.7349  22.7766  25.0685  25.1512  26.5800

     occupation numbers 
     1.0000   1.0000   1.0000   1.0000   1.0000   1.0000   1.0000   1.0000
     1.0000   1.0000   1.0000   1.0000   1.0000   1.0000   1.0277   0.1792
    -0.0000  -0.0000  -0.0000  -0.0000  -0.0000  -0.0000  -0.0000  -0.0000
    -0.0000  -0.0000  -0.0000  -0.0000  -0.0000  -0.0000

          k =-0.2500-1.0000 0.0000 (  2444 PWs)   bands (ev):

     3.6036   3.8227   4.2213   4.7005   4.7907   5.0534   5.1456   5.4478
     5.7924   5.8879   5.9919   6.2126   6.2545   6.9297   6.9805   7.4855
     7.4963   8.5282   8.7703  12.7659  15.2438  18.7418  19.6290  21.4774
    22.4247  22.5760  23.8720  23.9502  24.3246  24.8671

     occupation numbers 
     1.0000   1.0000   1.0000   1.0000   1.0000   1.0000   1.0000   1.0000
     1.0000   1.0000   1.0000   1.0000   1.0000   0.7951   0.2093  -0.0000
    -0.0000  -0.0000  -0.0000  -0.0000  -0.0000  -0.0000  -0.0000  -0.0000
    -0.0000  -0.0000  -0.0000  -0.0000  -0.0000  -0.0000

          k =-0.5000-1.0000 0.0000 (  2468 PWs)   bands (ev):

     3.8022   3.9117   4.2132   4.4956   5.0214   5.0783   5.1708   5.4063
     5.4194   5.7926   6.0052   6.2211   6.2530   6.9350   7.0348   7.4815
     7.7371   8.2314   8.2724  15.5343  15.5811  17.0490  17.2056  22.1400
    22.3397  22.6027  23.5880  23.6485  23.8138  24.9770

     occupation numbers 
     1.0000   1.0000   1.0000   1.0000   1.0000   1.0000   1.0000   1.0000
     1.0000   1.0000   1.0000   1.0000   1.0000   0.7409  -0.0349  -0.0000
    -0.0000  -0.0000  -0.0000  -0.0000  -0.0000  -0.0000  -0.0000  -0.0000
    -0.0000  -0.0000  -0.0000  -0.0000  -0.0000  -0.0000

     the Fermi energy is     6.9554 ev

!    total energy              =   -1145.92840499 Ry

     total all-electron energy =    -43178.887784 Ry
     estimated scf accuracy    <       0.00000005 Ry
     smearing contrib. (-TS)   =      -0.00048682 Ry
     internal energy E=F+TS    =   -1145.92791817 Ry

     The total energy is F=E-TS. E is the sum of the following terms:
     one-electron contribution =     -81.74478407 Ry
     hartree contribution      =      78.71043569 Ry
     xc contribution           =    -109.77529328 Ry
     ewald contribution        =    -173.58432781 Ry
     one-center paw contrib.   =    -859.53394870 Ry
      -> PAW hartree energy AE =     218.41708270 Ry
      -> PAW hartree energy PS =    -217.27456885 Ry
      -> PAW xc energy AE      =    -969.65465625 Ry
      -> PAW xc energy PS      =     108.97819370 Ry
      -> total E_H with PAW    =      79.85294954 Ry
      -> total E_XC with PAW   =    -970.45175584 Ry

     convergence has been achieved in  13 iterations

     Writing output data file ././CuPtNi.save/

     init_run     :      3.84s CPU      2.70s WALL (       1 calls)
     electrons    :    116.74s CPU     70.20s WALL (       1 calls)

     Called by init_run:
     wfcinit      :      2.62s CPU      1.54s WALL (       1 calls)
     wfcinit:atom :      0.06s CPU      0.02s WALL (      29 calls)
     wfcinit:wfcr :      2.41s CPU      1.46s WALL (      29 calls)
     potinit      :      0.36s CPU      0.37s WALL (       1 calls)
     hinit0       :      0.71s CPU      0.65s WALL (       1 calls)

     Called by electrons:
     c_bands      :     85.99s CPU     49.85s WALL (      13 calls)
     sum_band     :     23.43s CPU     13.87s WALL (      13 calls)
     v_of_rho     :      0.68s CPU      0.43s WALL (      14 calls)
     v_h          :      0.04s CPU      0.03s WALL (      14 calls)
     v_xc         :      0.64s CPU      0.40s WALL (      14 calls)
     newd         :      1.92s CPU      1.55s WALL (      14 calls)
     PAW_pot      :      5.03s CPU      4.85s WALL (      14 calls)
     mix_rho      :      0.12s CPU      0.07s WALL (      13 calls)

     Called by c_bands:
     init_us_2    :      2.00s CPU      0.93s WALL (     783 calls)
     cegterg      :     79.14s CPU     46.01s WALL (     377 calls)

     Called by sum_band:
     sum_band:wei :      0.03s CPU      0.01s WALL (      13 calls)
     sum_band:loo :     19.91s CPU     12.05s WALL (      13 calls)
     sum_band:buf :      0.10s CPU      0.05s WALL (     377 calls)
     sum_band:ini :      0.91s CPU      0.44s WALL (     377 calls)
     sum_band:cal :      0.38s CPU      0.20s WALL (     377 calls)
     sum_band:bec :      0.01s CPU      0.01s WALL (     377 calls)
     addusdens    :      3.37s CPU      1.75s WALL (      13 calls)
     addusd:skk   :      0.01s CPU      0.00s WALL (      39 calls)
     addusd:dgemm :      1.84s CPU      0.69s WALL (      39 calls)
     addusd:qvan2 :      1.30s CPU      0.81s WALL (      39 calls)

     Called by *egterg:
     cdiaghg      :      2.93s CPU      1.16s WALL (    1305 calls)
     cegterg:over :      1.77s CPU      0.69s WALL (     928 calls)
     cegterg:upda :      1.37s CPU      0.50s WALL (     928 calls)
     cegterg:last :      1.93s CPU      0.69s WALL (     640 calls)
     h_psi        :     70.24s CPU     43.10s WALL (    1334 calls)
     s_psi        :      1.24s CPU      0.53s WALL (    1334 calls)
     g_psi        :      0.65s CPU      0.23s WALL (     928 calls)

     Called by h_psi:
     h_psi:calbec :      1.23s CPU      0.88s WALL (    1334 calls)
     vloc_psi     :     67.27s CPU     41.42s WALL (    1334 calls)
     add_vuspsi   :      1.25s CPU      0.57s WALL (    1334 calls)

     General routines
     calbec       :      1.60s CPU      1.07s WALL (    1711 calls)
     fft          :      0.35s CPU      0.23s WALL (     154 calls)
     ffts         :      0.03s CPU      0.01s WALL (      13 calls)
     fftw         :     75.47s CPU     46.44s WALL (   65076 calls)

     Parallel routines

     PAW routines
     PAW_pot      :      5.03s CPU      4.85s WALL (      14 calls)
     PAW_symme    :      0.02s CPU      0.01s WALL (      27 calls)

     PWSCF        :   2m 0.83s CPU   1m13.23s WALL


   This run was terminated on:  13: 9:46  22May2024            

=------------------------------------------------------------------------------=
   JOB DONE.
=------------------------------------------------------------------------------=
