
     Program PWSCF v.6.7MaX starts on 22May2024 at 13: 3:25 

     This program is part of the open-source Quantum ESPRESSO suite
     for quantum simulation of materials; please cite
         "P. Giannozzi et al., J. Phys.:Condens. Matter 21 395502 (2009);
         "P. Giannozzi et al., J. Phys.:Condens. Matter 29 465901 (2017);
          URL http://www.quantum-espresso.org", 
     in publications or presentations arising from this work. More details at
     http://www.quantum-espresso.org/quote

     Parallel version (MPI), running on     1 processors

     MPI processes distributed on     1 nodes
     Waiting for input...
     Reading input from standard input

     Current dimensions of program PWSCF are:
     Max number of different atomic species (ntypx) = 10
     Max number of k-points (npk) =  40000
     Max angular momentum in pseudopotentials (lmaxx) =  3
     file Cu.UPF: wavefunction(s)  4S 3D renormalized
     file Pt.UPF: wavefunction(s)  6S 5D renormalized
     file Ni.UPF: wavefunction(s)  4S 3D renormalized

     Subspace diagonalization in iterative solution of the eigenvalue problem:
     a serial algorithm will be used


     G-vector sticks info
     --------------------
     sticks:   dense  smooth     PW     G-vecs:    dense   smooth      PW
     Sum         871     871    265                17153    17153    2837



     bravais-lattice index     =            2
     lattice parameter (alat)  =      11.3000  a.u.
     unit-cell volume          =     360.7243 (a.u.)^3
     number of atoms/cell      =            3
     number of atomic types    =            3
     number of electrons       =        31.00
     number of Kohn-Sham states=           30
     kinetic-energy cutoff     =      50.0000  Ry
     charge density cutoff     =     200.0000  Ry
     scf convergence threshold =      1.0E-07
     mixing beta               =       0.7000
     number of iterations used =            8  plain     mixing
     Exchange-correlation= SLA  PW   PBX  PBC
                           (   1   4   3   4   0   0   0)

     celldm(1)=  11.300000  celldm(2)=   0.000000  celldm(3)=   0.000000
     celldm(4)=   0.000000  celldm(5)=   0.000000  celldm(6)=   0.000000

     crystal axes: (cart. coord. in units of alat)
               a(1) = (  -0.500000   0.000000   0.500000 )  
               a(2) = (   0.000000   0.500000   0.500000 )  
               a(3) = (  -0.500000   0.500000   0.000000 )  

     reciprocal axes: (cart. coord. in units 2 pi/alat)
               b(1) = ( -1.000000 -1.000000  1.000000 )  
               b(2) = (  1.000000  1.000000  1.000000 )  
               b(3) = ( -1.000000  1.000000 -1.000000 )  


     PseudoPot. # 1 for Cu read from file:
     ././Cu.UPF
     MD5 check sum: cfffd1f38ee05704b3e17f46f1730a6f
     Pseudo is Projector augmented-wave + core cor, Zval = 11.0
     Generated using &quot;atomic&quot; code by A. Dal Corso  v.6.3
     Shape of augmentation charge: PSQ
     Using radial grid of 1199 points,  6 beta functions with: 
                l(1) =   0
                l(2) =   0
                l(3) =   1
                l(4) =   1
                l(5) =   2
                l(6) =   2
     Q(r) pseudized with 0 coefficients 


     PseudoPot. # 2 for Pt read from file:
     ././Pt.UPF
     MD5 check sum: c5224e9cd7a5e36e81f2def9f50bb494
     Pseudo is Projector augmented-wave + core cor, Zval = 10.0
     Generated using &quot;atomic&quot; code by A. Dal Corso  v.6.3
     Shape of augmentation charge: PSQ
     Using radial grid of 1277 points,  6 beta functions with: 
                l(1) =   0
                l(2) =   0
                l(3) =   1
                l(4) =   1
                l(5) =   2
                l(6) =   2
     Q(r) pseudized with 0 coefficients 


     PseudoPot. # 3 for Ni read from file:
     ././Ni.UPF
     MD5 check sum: 5bc40517020091042a126ac2b4ecef1e
     Pseudo is Projector augmented-wave + core cor, Zval = 10.0
     Generated using "atomic" code by A. Dal Corso  v.5.0.2 svn rev. 9415
     Shape of augmentation charge: PSQ
     Using radial grid of 1195 points,  6 beta functions with: 
                l(1) =   0
                l(2) =   0
                l(3) =   1
                l(4) =   1
                l(5) =   2
                l(6) =   2
     Q(r) pseudized with 0 coefficients 


     atomic species   valence    mass     pseudopotential
        Cu            11.00    63.54600     Cu( 1.00)
        Pt            10.00   195.08000     Pt( 1.00)
        Ni            10.00    58.69000     Ni( 1.00)

     24 Sym. Ops. (no inversion) found


                                    s                        frac. trans.

      isym =  1     identity                                     

 cryst.   s( 1) = (     1          0          0      )
                  (     0          1          0      )
                  (     0          0          1      )

 cart.    s( 1) = (  1.0000000  0.0000000  0.0000000 )
                  (  0.0000000  1.0000000  0.0000000 )
                  (  0.0000000  0.0000000  1.0000000 )


      isym =  2     180 deg rotation - cart. axis [0,0,1]        

 cryst.   s( 2) = (     0          1         -1      )
                  (     1          0         -1      )
                  (     0          0         -1      )

 cart.    s( 2) = ( -1.0000000  0.0000000  0.0000000 )
                  (  0.0000000 -1.0000000  0.0000000 )
                  (  0.0000000  0.0000000  1.0000000 )


      isym =  3     180 deg rotation - cart. axis [0,1,0]        

 cryst.   s( 3) = (    -1          0          0      )
                  (    -1          0          1      )
                  (    -1          1          0      )

 cart.    s( 3) = ( -1.0000000  0.0000000  0.0000000 )
                  (  0.0000000  1.0000000  0.0000000 )
                  (  0.0000000  0.0000000 -1.0000000 )


      isym =  4     180 deg rotation - cart. axis [1,0,0]        

 cryst.   s( 4) = (     0         -1          1      )
                  (     0         -1          0      )
                  (     1         -1          0      )

 cart.    s( 4) = (  1.0000000  0.0000000  0.0000000 )
                  (  0.0000000 -1.0000000  0.0000000 )
                  (  0.0000000  0.0000000 -1.0000000 )


      isym =  5     120 deg rotation - cart. axis [-1,-1,-1]     

 cryst.   s( 5) = (    -1          0          1      )
                  (    -1          1          0      )
                  (    -1          0          0      )

 cart.    s( 5) = (  0.0000000  1.0000000  0.0000000 )
                  (  0.0000000  0.0000000  1.0000000 )
                  (  1.0000000  0.0000000  0.0000000 )


      isym =  6     120 deg rotation - cart. axis [-1,1,1]       

 cryst.   s( 6) = (     0          1          0      )
                  (     0          0          1      )
                  (     1          0          0      )

 cart.    s( 6) = (  0.0000000 -1.0000000  0.0000000 )
                  (  0.0000000  0.0000000  1.0000000 )
                  ( -1.0000000  0.0000000  0.0000000 )


      isym =  7     120 deg rotation - cart. axis [1,1,-1]       

 cryst.   s( 7) = (     1          0         -1      )
                  (     0          0         -1      )
                  (     0          1         -1      )

 cart.    s( 7) = (  0.0000000  1.0000000  0.0000000 )
                  (  0.0000000  0.0000000 -1.0000000 )
                  ( -1.0000000  0.0000000  0.0000000 )


      isym =  8     120 deg rotation - cart. axis [1,-1,1]       

 cryst.   s( 8) = (     0         -1          0      )
                  (     1         -1          0      )
                  (     0         -1          1      )

 cart.    s( 8) = (  0.0000000 -1.0000000  0.0000000 )
                  (  0.0000000  0.0000000 -1.0000000 )
                  (  1.0000000  0.0000000  0.0000000 )


      isym =  9     120 deg rotation - cart. axis [1,1,1]        

 cryst.   s( 9) = (     0          0         -1      )
                  (     0          1         -1      )
                  (     1          0         -1      )

 cart.    s( 9) = (  0.0000000  0.0000000  1.0000000 )
                  (  1.0000000  0.0000000  0.0000000 )
                  (  0.0000000  1.0000000  0.0000000 )


      isym = 10     120 deg rotation - cart. axis [-1,1,-1]      

 cryst.   s(10) = (    -1          1          0      )
                  (    -1          0          0      )
                  (    -1          0          1      )

 cart.    s(10) = (  0.0000000  0.0000000  1.0000000 )
                  ( -1.0000000  0.0000000  0.0000000 )
                  (  0.0000000 -1.0000000  0.0000000 )


      isym = 11     120 deg rotation - cart. axis [1,-1,-1]      

 cryst.   s(11) = (     0          0          1      )
                  (     1          0          0      )
                  (     0          1          0      )

 cart.    s(11) = (  0.0000000  0.0000000 -1.0000000 )
                  ( -1.0000000  0.0000000  0.0000000 )
                  (  0.0000000  1.0000000  0.0000000 )


      isym = 12     120 deg rotation - cart. axis [-1,-1,1]      

 cryst.   s(12) = (     1         -1          0      )
                  (     0         -1          1      )
                  (     0         -1          0      )

 cart.    s(12) = (  0.0000000  0.0000000 -1.0000000 )
                  (  1.0000000  0.0000000  0.0000000 )
                  (  0.0000000 -1.0000000  0.0000000 )


      isym = 13     inv. 180 deg rotation - cart. axis [1,1,0]   

 cryst.   s(13) = (     0          1          0      )
                  (     1          0          0      )
                  (     0          0          1      )

 cart.    s(13) = (  0.0000000 -1.0000000  0.0000000 )
                  ( -1.0000000  0.0000000  0.0000000 )
                  (  0.0000000  0.0000000  1.0000000 )


      isym = 14     inv. 180 deg rotation - cart. axis [1,-1,0]  

 cryst.   s(14) = (     1          0         -1      )
                  (     0          1         -1      )
                  (     0          0         -1      )

 cart.    s(14) = (  0.0000000  1.0000000  0.0000000 )
                  (  1.0000000  0.0000000  0.0000000 )
                  (  0.0000000  0.0000000  1.0000000 )


      isym = 15     inv.  90 deg rotation - cart. axis [0,0,-1]  

 cryst.   s(15) = (     0         -1          0      )
                  (     0         -1          1      )
                  (     1         -1          0      )

 cart.    s(15) = (  0.0000000 -1.0000000  0.0000000 )
                  (  1.0000000  0.0000000  0.0000000 )
                  (  0.0000000  0.0000000 -1.0000000 )


      isym = 16     inv.  90 deg rotation - cart. axis [0,0,1]   

 cryst.   s(16) = (    -1          0          1      )
                  (    -1          0          0      )
                  (    -1          1          0      )

 cart.    s(16) = (  0.0000000  1.0000000  0.0000000 )
                  ( -1.0000000  0.0000000  0.0000000 )
                  (  0.0000000  0.0000000 -1.0000000 )


      isym = 17     inv. 180 deg rotation - cart. axis [1,0,1]   

 cryst.   s(17) = (     1          0          0      )
                  (     0          0          1      )
                  (     0          1          0      )

 cart.    s(17) = (  0.0000000  0.0000000 -1.0000000 )
                  (  0.0000000  1.0000000  0.0000000 )
                  ( -1.0000000  0.0000000  0.0000000 )


      isym = 18     inv. 180 deg rotation - cart. axis [-1,0,1]  

 cryst.   s(18) = (    -1          0          0      )
                  (    -1          1          0      )
                  (    -1          0          1      )

 cart.    s(18) = (  0.0000000  0.0000000  1.0000000 )
                  (  0.0000000  1.0000000  0.0000000 )
                  (  1.0000000  0.0000000  0.0000000 )


      isym = 19     inv.  90 deg rotation - cart. axis [0,1,0]   

 cryst.   s(19) = (     0         -1          1      )
                  (     1         -1          0      )
                  (     0         -1          0      )

 cart.    s(19) = (  0.0000000  0.0000000 -1.0000000 )
                  (  0.0000000 -1.0000000  0.0000000 )
                  (  1.0000000  0.0000000  0.0000000 )


      isym = 20     inv.  90 deg rotation - cart. axis [0,-1,0]  

 cryst.   s(20) = (     0          1         -1      )
                  (     0          0         -1      )
                  (     1          0         -1      )

 cart.    s(20) = (  0.0000000  0.0000000  1.0000000 )
                  (  0.0000000 -1.0000000  0.0000000 )
                  ( -1.0000000  0.0000000  0.0000000 )


      isym = 21     inv. 180 deg rotation - cart. axis [0,1,1]   

 cryst.   s(21) = (     1         -1          0      )
                  (     0         -1          0      )
                  (     0         -1          1      )

 cart.    s(21) = (  1.0000000  0.0000000  0.0000000 )
                  (  0.0000000  0.0000000 -1.0000000 )
                  (  0.0000000 -1.0000000  0.0000000 )


      isym = 22     inv. 180 deg rotation - cart. axis [0,1,-1]  

 cryst.   s(22) = (     0          0          1      )
                  (     0          1          0      )
                  (     1          0          0      )

 cart.    s(22) = (  1.0000000  0.0000000  0.0000000 )
                  (  0.0000000  0.0000000  1.0000000 )
                  (  0.0000000  1.0000000  0.0000000 )


      isym = 23     inv.  90 deg rotation - cart. axis [-1,0,0]  

 cryst.   s(23) = (     0          0         -1      )
                  (     1          0         -1      )
                  (     0          1         -1      )

 cart.    s(23) = ( -1.0000000  0.0000000  0.0000000 )
                  (  0.0000000  0.0000000 -1.0000000 )
                  (  0.0000000  1.0000000  0.0000000 )


      isym = 24     inv.  90 deg rotation - cart. axis [1,0,0]   

 cryst.   s(24) = (    -1          1          0      )
                  (    -1          0          1      )
                  (    -1          0          0      )

 cart.    s(24) = ( -1.0000000  0.0000000  0.0000000 )
                  (  0.0000000  0.0000000  1.0000000 )
                  (  0.0000000 -1.0000000  0.0000000 )


     point group T_d (-43m) 
     there are  5 classes
     the character table:

       E     8C3   3C2   6S4   6s_d 
A_1    1.00  1.00  1.00  1.00  1.00
A_2    1.00  1.00  1.00 -1.00 -1.00
E      2.00 -1.00  2.00  0.00  0.00
T_1    3.00  0.00 -1.00  1.00 -1.00
T_2    3.00  0.00 -1.00 -1.00  1.00

     the symmetry operations in each class and the name of the first element:

     E        1
          identity                                               
     8C3      5    7    8    6   12    9   10   11
          120 deg rotation - cart. axis [-1,-1,-1]               
     3C2      2    3    4
          180 deg rotation - cart. axis [0,0,1]                  
     6S4     15   16   20   19   23   24
          inv.  90 deg rotation - cart. axis [0,0,-1]            
     6s_d    13   14   17   18   21   22
          inv. 180 deg rotation - cart. axis [1,1,0]             

   Cartesian axes

     site n.     atom                  positions (alat units)
         1           Cu  tau(   1) = (   0.0000000   0.0000000   0.0000000  )
         2           Pt  tau(   2) = (   0.5000000   0.5000000   0.5000000  )
         3           Ni  tau(   3) = (   0.2500000   0.2500000   0.2500000  )

   Crystallographic axes

     site n.     atom                  positions (cryst. coord.)
         1           Cu  tau(   1) = (  0.0000000  0.0000000  0.0000000  )
         2           Pt  tau(   2) = ( -0.5000000  1.5000000 -0.5000000  )
         3           Ni  tau(   3) = ( -0.2500000  0.7500000 -0.2500000  )

     number of k points=    29  Methfessel-Paxton smearing, width (Ry)=  0.0050
                       cart. coord. in units 2pi/alat
        k(    1) = (   0.0000000   0.0000000   0.0000000), wk =   0.0039062
        k(    2) = (  -0.1250000   0.1250000  -0.1250000), wk =   0.0312500
        k(    3) = (  -0.2500000   0.2500000  -0.2500000), wk =   0.0312500
        k(    4) = (  -0.3750000   0.3750000  -0.3750000), wk =   0.0312500
        k(    5) = (   0.5000000  -0.5000000   0.5000000), wk =   0.0156250
        k(    6) = (   0.0000000   0.2500000   0.0000000), wk =   0.0234375
        k(    7) = (  -0.1250000   0.3750000  -0.1250000), wk =   0.0937500
        k(    8) = (  -0.2500000   0.5000000  -0.2500000), wk =   0.0937500
        k(    9) = (   0.6250000  -0.3750000   0.6250000), wk =   0.0937500
        k(   10) = (   0.5000000  -0.2500000   0.5000000), wk =   0.0937500
        k(   11) = (   0.3750000  -0.1250000   0.3750000), wk =   0.0937500
        k(   12) = (   0.2500000   0.0000000   0.2500000), wk =   0.0468750
        k(   13) = (   0.0000000   0.5000000   0.0000000), wk =   0.0234375
        k(   14) = (  -0.1250000   0.6250000  -0.1250000), wk =   0.0937500
        k(   15) = (   0.7500000  -0.2500000   0.7500000), wk =   0.0937500
        k(   16) = (   0.6250000  -0.1250000   0.6250000), wk =   0.0937500
        k(   17) = (   0.5000000   0.0000000   0.5000000), wk =   0.0468750
        k(   18) = (   0.0000000   0.7500000   0.0000000), wk =   0.0234375
        k(   19) = (   0.8750000  -0.1250000   0.8750000), wk =   0.0937500
        k(   20) = (   0.7500000   0.0000000   0.7500000), wk =   0.0468750
        k(   21) = (   0.0000000  -1.0000000   0.0000000), wk =   0.0117188
        k(   22) = (  -0.2500000   0.5000000   0.0000000), wk =   0.0937500
        k(   23) = (   0.6250000  -0.3750000   0.8750000), wk =   0.1875000
        k(   24) = (   0.5000000  -0.2500000   0.7500000), wk =   0.0937500
        k(   25) = (   0.7500000  -0.2500000   1.0000000), wk =   0.0937500
        k(   26) = (   0.6250000  -0.1250000   0.8750000), wk =   0.1875000
        k(   27) = (   0.5000000   0.0000000   0.7500000), wk =   0.0937500
        k(   28) = (  -0.2500000  -1.0000000   0.0000000), wk =   0.0468750
        k(   29) = (  -0.5000000  -1.0000000   0.0000000), wk =   0.0234375

                       cryst. coord.
        k(    1) = (   0.0000000   0.0000000   0.0000000), wk =   0.0039062
        k(    2) = (   0.0000000   0.0000000   0.1250000), wk =   0.0312500
        k(    3) = (   0.0000000   0.0000000   0.2500000), wk =   0.0312500
        k(    4) = (   0.0000000   0.0000000   0.3750000), wk =   0.0312500
        k(    5) = (   0.0000000   0.0000000  -0.5000000), wk =   0.0156250
        k(    6) = (   0.0000000   0.1250000   0.1250000), wk =   0.0234375
        k(    7) = (   0.0000000   0.1250000   0.2500000), wk =   0.0937500
        k(    8) = (   0.0000000   0.1250000   0.3750000), wk =   0.0937500
        k(    9) = (   0.0000000   0.1250000  -0.5000000), wk =   0.0937500
        k(   10) = (   0.0000000   0.1250000  -0.3750000), wk =   0.0937500
        k(   11) = (   0.0000000   0.1250000  -0.2500000), wk =   0.0937500
        k(   12) = (   0.0000000   0.1250000  -0.1250000), wk =   0.0468750
        k(   13) = (   0.0000000   0.2500000   0.2500000), wk =   0.0234375
        k(   14) = (   0.0000000   0.2500000   0.3750000), wk =   0.0937500
        k(   15) = (   0.0000000   0.2500000  -0.5000000), wk =   0.0937500
        k(   16) = (   0.0000000   0.2500000  -0.3750000), wk =   0.0937500
        k(   17) = (   0.0000000   0.2500000  -0.2500000), wk =   0.0468750
        k(   18) = (   0.0000000   0.3750000   0.3750000), wk =   0.0234375
        k(   19) = (   0.0000000   0.3750000  -0.5000000), wk =   0.0937500
        k(   20) = (   0.0000000   0.3750000  -0.3750000), wk =   0.0468750
        k(   21) = (   0.0000000  -0.5000000  -0.5000000), wk =   0.0117188
        k(   22) = (   0.1250000   0.2500000   0.3750000), wk =   0.0937500
        k(   23) = (   0.1250000   0.2500000  -0.5000000), wk =   0.1875000
        k(   24) = (   0.1250000   0.2500000  -0.3750000), wk =   0.0937500
        k(   25) = (   0.1250000   0.3750000  -0.5000000), wk =   0.0937500
        k(   26) = (   0.1250000   0.3750000  -0.3750000), wk =   0.1875000
        k(   27) = (   0.1250000   0.3750000  -0.2500000), wk =   0.0937500
        k(   28) = (   0.1250000  -0.5000000  -0.3750000), wk =   0.0468750
        k(   29) = (   0.2500000  -0.5000000  -0.2500000), wk =   0.0234375

     Dense  grid:    17153 G-vectors     FFT dimensions: (  36,  36,  36)

     Dynamical RAM for                 wfc:       0.99 MB

     Dynamical RAM for     wfc (w. buffer):      29.58 MB

     Dynamical RAM for           str. fact:       0.79 MB

     Dynamical RAM for           local pot:       0.00 MB

     Dynamical RAM for          nlocal pot:       1.77 MB

     Dynamical RAM for                qrad:       3.41 MB

     Dynamical RAM for          rho,v,vnew:       1.85 MB

     Dynamical RAM for               rhoin:       0.62 MB

     Dynamical RAM for            rho*nmix:       4.19 MB

     Dynamical RAM for           G-vectors:       1.11 MB

     Dynamical RAM for          h,s,v(r/c):       0.16 MB

     Dynamical RAM for          <psi|beta>:       0.02 MB

     Dynamical RAM for                 psi:       1.97 MB

     Dynamical RAM for                hpsi:       1.97 MB

     Dynamical RAM for                spsi:       1.97 MB

     Dynamical RAM for      wfcinit/wfcrot:       1.99 MB

     Dynamical RAM for           addusdens:      48.94 MB

     Estimated static dynamical RAM per process >      46.15 MB

     Estimated max dynamical RAM per process >      95.09 MB

     Check: negative core charge=   -0.000004

     Initial potential from superposition of free atoms

     starting charge   30.99935, renormalised to   31.00000
     Starting wfcs are   27 randomized atomic wfcs +    3 random wfcs
     Checking if some PAW data can be deallocated... 

     total cpu time spent up to now is        2.4 secs

     Self-consistent Calculation

     iteration #  1     ecut=    50.00 Ry     beta= 0.70
     Davidson diagonalization with overlap
     ethr =  1.00E-02,  avg # of iterations =  5.2

     total cpu time spent up to now is        7.4 secs

     total energy              =   -1144.46796196 Ry
     estimated scf accuracy    <       1.97735265 Ry

     iteration #  2     ecut=    50.00 Ry     beta= 0.70
     Davidson diagonalization with overlap
     ethr =  6.38E-03,  avg # of iterations =  2.1

     total cpu time spent up to now is       11.6 secs

     total energy              =   -1142.74203654 Ry
     estimated scf accuracy    <      52.17850783 Ry

     iteration #  3     ecut=    50.00 Ry     beta= 0.70
     Davidson diagonalization with overlap
     ethr =  6.38E-03,  avg # of iterations =  2.0

     total cpu time spent up to now is       15.5 secs

     total energy              =   -1145.91255042 Ry
     estimated scf accuracy    <       0.65237155 Ry

     iteration #  4     ecut=    50.00 Ry     beta= 0.70
     Davidson diagonalization with overlap
     ethr =  2.10E-03,  avg # of iterations =  1.2

     total cpu time spent up to now is       18.9 secs

     total energy              =   -1145.98574252 Ry
     estimated scf accuracy    <       0.18360433 Ry

     iteration #  5     ecut=    50.00 Ry     beta= 0.70
     Davidson diagonalization with overlap
     ethr =  5.92E-04,  avg # of iterations =  1.6

     total cpu time spent up to now is       22.4 secs

     total energy              =   -1145.98884929 Ry
     estimated scf accuracy    <       0.05483210 Ry

     iteration #  6     ecut=    50.00 Ry     beta= 0.70
     Davidson diagonalization with overlap
     ethr =  1.77E-04,  avg # of iterations =  1.8

     total cpu time spent up to now is       26.0 secs

     total energy              =   -1145.99267680 Ry
     estimated scf accuracy    <       0.00237602 Ry

     iteration #  7     ecut=    50.00 Ry     beta= 0.70
     Davidson diagonalization with overlap
     ethr =  7.66E-06,  avg # of iterations =  7.5

     total cpu time spent up to now is       30.9 secs

     total energy              =   -1145.99340461 Ry
     estimated scf accuracy    <       0.00288351 Ry

     iteration #  8     ecut=    50.00 Ry     beta= 0.70
     Davidson diagonalization with overlap
     ethr =  7.66E-06,  avg # of iterations =  1.1

     total cpu time spent up to now is       34.4 secs

     total energy              =   -1145.99361642 Ry
     estimated scf accuracy    <       0.00004958 Ry

     iteration #  9     ecut=    50.00 Ry     beta= 0.70
     Davidson diagonalization with overlap
     ethr =  1.60E-07,  avg # of iterations =  3.9

     total cpu time spent up to now is       38.7 secs

     total energy              =   -1145.99363675 Ry
     estimated scf accuracy    <       0.00002058 Ry

     iteration # 10     ecut=    50.00 Ry     beta= 0.70
     Davidson diagonalization with overlap
     ethr =  6.64E-08,  avg # of iterations =  1.1

     total cpu time spent up to now is       42.4 secs

     total energy              =   -1145.99363620 Ry
     estimated scf accuracy    <       0.00000854 Ry

     iteration # 11     ecut=    50.00 Ry     beta= 0.70
     Davidson diagonalization with overlap
     ethr =  2.76E-08,  avg # of iterations =  1.4

     total cpu time spent up to now is       46.2 secs

     End of self-consistent calculation

          k = 0.0000 0.0000 0.0000 (  2109 PWs)   bands (ev):

     1.8311   5.4326   5.4326   5.7868   5.7868   5.7868   6.7971   6.7971
     6.7971   7.8947   7.8947   8.1514   8.1514   8.1514   8.5918   8.5918
    15.8539  15.8539  15.8539  16.8195  18.0268  18.2042  18.2042  18.2042
    20.6835  20.6835  20.6835  24.6372  24.8788  24.8788

     occupation numbers 
     1.0000   1.0000   1.0000   1.0000   1.0000   1.0000   1.0000   1.0000
     1.0000   1.0000   1.0000   1.0000   1.0000   1.0000   1.0235   1.0235
    -0.0000  -0.0000  -0.0000  -0.0000  -0.0000  -0.0000  -0.0000  -0.0000
    -0.0000  -0.0000  -0.0000  -0.0000  -0.0000  -0.0000

          k =-0.1250 0.1250-0.1250 (  2133 PWs)   bands (ev):

     2.0458   5.4884   5.4884   5.7492   5.8394   5.8394   6.7759   6.7759
     6.8538   7.8033   7.8033   7.9671   8.1323   8.1323   8.6035   8.6035
    13.9131  15.7314  15.7314  17.0610  18.1714  18.1714  18.2729  18.9328
    20.7218  20.7218  21.5984  25.5629  25.5629  25.8138

     occupation numbers 
     1.0000   1.0000   1.0000   1.0000   1.0000   1.0000   1.0000   1.0000
     1.0000   1.0000   1.0000   1.0000   1.0000   1.0000   1.0311   1.0311
    -0.0000  -0.0000  -0.0000  -0.0000  -0.0000  -0.0000  -0.0000  -0.0000
    -0.0000  -0.0000  -0.0000  -0.0000  -0.0000  -0.0000

          k =-0.2500 0.2500-0.2500 (  2154 PWs)   bands (ev):

     2.6642   5.6454   5.6454   5.7005   5.9704   5.9704   6.7258   6.7258
     6.9293   7.5068   7.5433   7.5434   8.1324   8.1324   8.6023   8.6023
    11.5793  15.4718  15.4718  16.6128  17.8638  17.8638  18.4219  20.0450
    21.3757  21.3757  24.4551  27.1086  27.1086  28.4089

     occupation numbers 
     1.0000   1.0000   1.0000   1.0000   1.0000   1.0000   1.0000   1.0000
     1.0000   1.0000   1.0000   1.0000   1.0000   1.0000   1.0304   1.0304
    -0.0000  -0.0000  -0.0000  -0.0000  -0.0000  -0.0000  -0.0000  -0.0000
    -0.0000  -0.0000  -0.0000  -0.0000  -0.0000  -0.0000

          k =-0.3750 0.3750-0.3750 (  2153 PWs)   bands (ev):

     3.5673   5.6900   5.8523   5.8523   6.1098   6.1098   6.6116   6.6856
     6.6856   7.2228   7.2228   7.2307   8.1646   8.1646   8.5683   8.5683
     9.8089  15.2294  15.2294  16.3227  17.4898  17.4898  18.0927  22.1631
    22.6992  22.6992  27.3481  27.3789  27.3790  28.8847

     occupation numbers 
     1.0000   1.0000   1.0000   1.0000   1.0000   1.0000   1.0000   1.0000
     1.0000   1.0000   1.0000   1.0000   1.0000   1.0000   1.0098   1.0098
    -0.0000  -0.0000  -0.0000  -0.0000  -0.0000  -0.0000  -0.0000  -0.0000
    -0.0000  -0.0000  -0.0000  -0.0000  -0.0000  -0.0000

          k = 0.5000-0.5000 0.5000 (  2138 PWs)   bands (ev):

     4.2005   5.6139   5.9648   5.9648   6.1720   6.1720   6.2228   6.6856
     6.6856   7.0459   7.0459   7.2219   8.1878   8.1878   8.5431   8.5431
     9.1299  15.1285  15.1285  16.2218  17.3446  17.3446  17.9800  23.7939
    23.7939  24.1500  25.7372  26.0703  26.0703  30.8142

     occupation numbers 
     1.0000   1.0000   1.0000   1.0000   1.0000   1.0000   1.0000   1.0000
     1.0000   1.0000   1.0000   1.0000   1.0000   1.0000   1.0026   1.0026
    -0.0000  -0.0000  -0.0000  -0.0000  -0.0000  -0.0000  -0.0000  -0.0000
    -0.0000  -0.0000  -0.0000  -0.0000  -0.0000  -0.0000

          k = 0.0000 0.2500 0.0000 (  2137 PWs)   bands (ev):

     2.1161   5.4842   5.5139   5.7114   5.8682   5.8682   6.7007   6.8495
     6.8495   7.6838   7.8858   8.0782   8.0799   8.0799   8.5270   8.6465
    14.7241  14.7790  14.7790  16.4478  18.0207  18.9761  18.9761  19.0338
    20.7514  21.6269  21.6269  24.7969  24.8617  27.3599

     occupation numbers 
     1.0000   1.0000   1.0000   1.0000   1.0000   1.0000   1.0000   1.0000
     1.0000   1.0000   1.0000   1.0000   1.0000   1.0000   1.0010   0.9861
    -0.0000  -0.0000  -0.0000  -0.0000  -0.0000  -0.0000  -0.0000  -0.0000
    -0.0000  -0.0000  -0.0000  -0.0000  -0.0000  -0.0000

          k =-0.1250 0.3750-0.1250 (  2148 PWs)   bands (ev):

     2.5962   5.5330   5.6399   5.6743   5.9731   5.9945   6.5582   6.8762
     6.9180   7.5001   7.7249   7.7914   8.0852   8.1227   8.4809   8.6639
    12.4162  14.1241  15.0519  15.8266  17.9292  18.8867  19.2779  20.1923
    21.5028  22.4047  23.5771  25.5771  25.9862  29.4946

     occupation numbers 
     1.0000   1.0000   1.0000   1.0000   1.0000   1.0000   1.0000   1.0000
     1.0000   1.0000   1.0000   1.0000   1.0000   1.0000   1.0000   0.8861
    -0.0000  -0.0000  -0.0000  -0.0000  -0.0000  -0.0000  -0.0000  -0.0000
    -0.0000  -0.0000  -0.0000  -0.0000  -0.0000  -0.0000

          k =-0.2500 0.5000-0.2500 (  2150 PWs)   bands (ev):

     3.4074   5.5437   5.7286   5.8243   6.1022   6.1856   6.4467   6.8523
     6.8706   7.2849   7.3856   7.4545   8.1390   8.1479   8.4755   8.6455
    10.3551  13.8764  14.2924  15.8890  18.2069  19.0017  19.4568  20.1460
    23.1323  23.4756  26.4328  26.4635  27.7824  28.7561

     occupation numbers 
     1.0000   1.0000   1.0000   1.0000   1.0000   1.0000   1.0000   1.0000
     1.0000   1.0000   1.0000   1.0000   1.0000   1.0000   1.0000   0.9902
    -0.0000  -0.0000  -0.0000  -0.0000  -0.0000  -0.0000  -0.0000  -0.0000
    -0.0000  -0.0000  -0.0000  -0.0000  -0.0000  -0.0000

          k = 0.6250-0.3750 0.6250 (  2153 PWs)   bands (ev):

     4.2391   5.4081   5.8224   5.9568   6.1616   6.2253   6.5661   6.6903
     6.7867   7.0573   7.1319   7.3200   8.1444   8.1954   8.5477   8.5665
     9.1886  13.5897  14.0935  15.9664  18.0821  18.5446  19.7763  21.6448
    23.9277  24.3308  25.8868  26.0547  28.3805  29.4775

     occupation numbers 
     1.0000   1.0000   1.0000   1.0000   1.0000   1.0000   1.0000   1.0000
     1.0000   1.0000   1.0000   1.0000   1.0000   1.0000   1.0035   1.0091
    -0.0000  -0.0000  -0.0000  -0.0000  -0.0000  -0.0000  -0.0000  -0.0000
    -0.0000  -0.0000  -0.0000  -0.0000  -0.0000  -0.0000

          k = 0.5000-0.2500 0.5000 (  2149 PWs)   bands (ev):

     4.0055   5.5025   5.8390   5.9230   6.1928   6.2391   6.4682   6.6234
     6.8361   7.0785   7.1680   7.3737   8.1253   8.2176   8.4607   8.6428
     9.4726  13.1897  14.7665  16.2041  17.9619  18.1205  19.9804  22.0382
    22.2853  24.0398  26.3033  27.4564  27.8033  28.9103

     occupation numbers 
     1.0000   1.0000   1.0000   1.0000   1.0000   1.0000   1.0000   1.0000
     1.0000   1.0000   1.0000   1.0000   1.0000   1.0000   1.0000   0.9997
    -0.0000  -0.0000  -0.0000  -0.0000  -0.0000  -0.0000  -0.0000  -0.0000
    -0.0000  -0.0000  -0.0000  -0.0000  -0.0000  -0.0000

          k = 0.3750-0.1250 0.3750 (  2147 PWs)   bands (ev):

     3.1116   5.6055   5.7071   5.7475   6.0845   6.1303   6.5890   6.7057
     6.8931   7.3419   7.3585   7.5984   8.1214   8.1675   8.4382   8.6898
    11.0094  13.1775  15.7949  16.6952  17.6526  17.9549  19.5260  20.8155
    20.8303  23.9870  25.2994  26.3157  27.4606  29.0063

     occupation numbers 
     1.0000   1.0000   1.0000   1.0000   1.0000   1.0000   1.0000   1.0000
     1.0000   1.0000   1.0000   1.0000   1.0000   1.0000   1.0000   0.6251
    -0.0000  -0.0000  -0.0000  -0.0000  -0.0000  -0.0000  -0.0000  -0.0000
    -0.0000  -0.0000  -0.0000  -0.0000  -0.0000  -0.0000

          k = 0.2500 0.0000 0.2500 (  2131 PWs)   bands (ev):

     2.3943   5.5701   5.5732   5.6768   5.9177   5.9560   6.6743   6.8391
     6.8695   7.6099   7.6378   7.8687   8.0972   8.1329   8.5107   8.6722
    12.9614  13.8038  16.6834  17.1672  17.4271  17.8549  18.4513  20.2412
    20.2657  22.3837  22.9930  24.8785  27.1116  27.7224

     occupation numbers 
     1.0000   1.0000   1.0000   1.0000   1.0000   1.0000   1.0000   1.0000
     1.0000   1.0000   1.0000   1.0000   1.0000   1.0000   1.0003   0.8155
    -0.0000  -0.0000  -0.0000  -0.0000  -0.0000  -0.0000  -0.0000  -0.0000
    -0.0000  -0.0000  -0.0000  -0.0000  -0.0000  -0.0000

          k = 0.0000 0.5000 0.0000 (  2141 PWs)   bands (ev):

     2.9171   5.4078   5.6533   5.7312   6.0462   6.0462   6.3683   6.9804
     6.9804   7.4777   7.8551   8.0153   8.0153   8.0160   8.3586   8.6588
    13.0588  13.0588  13.5984  14.1174  17.2976  20.4499  20.4499  22.1853
    22.7857  23.6689  23.6689  24.8204  25.0279  30.2101

     occupation numbers 
     1.0000   1.0000   1.0000   1.0000   1.0000   1.0000   1.0000   1.0000
     1.0000   1.0000   1.0000   1.0000   1.0000   1.0000   1.0000   0.9223
    -0.0000  -0.0000  -0.0000  -0.0000  -0.0000  -0.0000  -0.0000  -0.0000
    -0.0000  -0.0000  -0.0000  -0.0000  -0.0000  -0.0000

          k =-0.1250 0.6250-0.1250 (  2145 PWs)   bands (ev):

     3.5659   5.3406   5.5626   5.8776   6.1495   6.1576   6.3417   6.9864
     7.0088   7.4326   7.6586   7.8149   8.0731   8.1472   8.3728   8.6670
    11.0969  12.5019  12.5688  14.7210  17.5863  20.5739  20.8412  22.7438
    24.1563  24.5364  25.4349  25.4846  26.7245  28.6514

     occupation numbers 
     1.0000   1.0000   1.0000   1.0000   1.0000   1.0000   1.0000   1.0000
     1.0000   1.0000   1.0000   1.0000   1.0000   1.0000   1.0000   0.8613
    -0.0000  -0.0000  -0.0000  -0.0000  -0.0000  -0.0000  -0.0000  -0.0000
    -0.0000  -0.0000  -0.0000  -0.0000  -0.0000  -0.0000

          k = 0.7500-0.2500 0.7500 (  2156 PWs)   bands (ev):

     4.3569   5.2228   5.5436   5.9753   6.0811   6.3104   6.5687   6.8968
     7.1041   7.2856   7.3164   7.6548   8.0332   8.2717   8.5639   8.6551
     9.4145  11.6716  12.6013  15.2897  18.8976  20.2294  20.5453  22.5384
    24.2248  24.6495  26.1087  26.3507  28.2210  29.3017

     occupation numbers 
     1.0000   1.0000   1.0000   1.0000   1.0000   1.0000   1.0000   1.0000
     1.0000   1.0000   1.0000   1.0000   1.0000   1.0000   1.0080   0.9446
    -0.0000  -0.0000  -0.0000  -0.0000  -0.0000  -0.0000  -0.0000  -0.0000
    -0.0000  -0.0000  -0.0000  -0.0000  -0.0000  -0.0000

          k = 0.6250-0.1250 0.6250 (  2161 PWs)   bands (ev):

     4.5579   5.2389   5.7063   5.9402   5.9787   6.4283   6.6693   6.7861
     6.9421   7.1055   7.3072   7.5213   8.0382   8.2286   8.5626   8.6924
     9.3390  11.0995  13.3286  15.6475  19.5242  20.0853  21.0740  21.9075
    22.2198  23.4449  26.7640  27.8754  28.8567  29.4478

     occupation numbers 
     1.0000   1.0000   1.0000   1.0000   1.0000   1.0000   1.0000   1.0000
     1.0000   1.0000   1.0000   1.0000   1.0000   1.0000   1.0075   0.5935
    -0.0000  -0.0000  -0.0000  -0.0000  -0.0000  -0.0000  -0.0000  -0.0000
    -0.0000  -0.0000  -0.0000  -0.0000  -0.0000  -0.0000

          k = 0.5000 0.0000 0.5000 (  2151 PWs)   bands (ev):

     3.8421   5.4884   5.7207   5.8917   6.1792   6.3133   6.5471   6.5771
     6.9193   7.1090   7.2922   7.6006   8.0791   8.2366   8.3712   8.7262
    10.5911  11.1852  14.4964  16.0834  19.1769  19.2264  19.7760  20.8854
    22.8010  23.9311  25.3975  27.4588  27.8555  29.5193

     occupation numbers 
     1.0000   1.0000   1.0000   1.0000   1.0000   1.0000   1.0000   1.0000
     1.0000   1.0000   1.0000   1.0000   1.0000   1.0000   1.0000   0.1989
    -0.0000  -0.0000  -0.0000  -0.0000  -0.0000  -0.0000  -0.0000  -0.0000
    -0.0000  -0.0000  -0.0000  -0.0000  -0.0000  -0.0000

          k = 0.0000 0.7500 0.0000 (  2152 PWs)   bands (ev):

     3.9809   5.1627   5.4523   5.9925   6.1921   6.1921   6.3511   7.0268
     7.0268   7.5189   7.7901   7.9269   8.1802   8.3016   8.3016   8.7102
    11.0158  11.5384  11.5384  13.7695  16.9832  22.3999  22.3999  24.7594
    24.7783  25.4489  25.7381  25.7382  26.3253  28.5356

     occupation numbers 
     1.0000   1.0000   1.0000   1.0000   1.0000   1.0000   1.0000   1.0000
     1.0000   1.0000   1.0000   1.0000   1.0000   1.0000   1.0000   0.3743
    -0.0000  -0.0000  -0.0000  -0.0000  -0.0000  -0.0000  -0.0000  -0.0000
    -0.0000  -0.0000  -0.0000  -0.0000  -0.0000  -0.0000

          k = 0.8750-0.1250 0.8750 (  2156 PWs)   bands (ev):

     4.4952   5.0477   5.4479   6.0478   6.1158   6.3066   6.4931   6.9537
     7.1454   7.4998   7.6902   7.8523   7.9625   8.5497   8.6027   8.8511
     9.8569  10.4144  11.3550  14.4106  17.3769  22.4449  22.6822  24.4426
    24.4626  25.7478  26.3408  26.7150  27.8218  28.1770

     occupation numbers 
     1.0000   1.0000   1.0000   1.0000   1.0000   1.0000   1.0000   1.0000
     1.0000   1.0000   1.0000   1.0000   1.0000   1.0039   1.0306  -0.0037
    -0.0000  -0.0000  -0.0000  -0.0000  -0.0000  -0.0000  -0.0000  -0.0000
    -0.0000  -0.0000  -0.0000  -0.0000  -0.0000  -0.0000

          k = 0.7500 0.0000 0.7500 (  2149 PWs)   bands (ev):

     4.8974   4.9733   5.5521   5.8751   6.0184   6.4728   6.6065   6.8243
     7.2865   7.3644   7.4737   7.7287   7.9424   8.6088   8.7041   8.7282
     9.4108   9.7293  12.0725  15.1398  18.8116  21.7913  22.1534  22.2654
    22.5734  26.0391  26.2232  27.5052  28.3558  29.4805

     occupation numbers 
     1.0000   1.0000   1.0000   1.0000   1.0000   1.0000   1.0000   1.0000
     1.0000   1.0000   1.0000   1.0000   1.0000   1.0337   0.4477   0.1799
    -0.0000  -0.0000  -0.0000  -0.0000  -0.0000  -0.0000  -0.0000  -0.0000
    -0.0000  -0.0000  -0.0000  -0.0000  -0.0000  -0.0000

          k = 0.0000-1.0000 0.0000 (  2164 PWs)   bands (ev):

     4.5667   4.9207   5.4767   6.1222   6.2448   6.2448   6.4821   7.0009
     7.0009   7.5788   7.7361   7.8560   8.1120   8.6570   8.6570   9.1245
     9.3874  10.7884  10.7884  13.7027  16.8989  24.0463  24.0463  24.7604
    25.3127  25.7962  25.7962  26.5516  27.7473  27.7473

     occupation numbers 
     1.0000   1.0000   1.0000   1.0000   1.0000   1.0000   1.0000   1.0000
     1.0000   1.0000   1.0000   1.0000   1.0000   0.9332   0.9332  -0.0000
    -0.0000  -0.0000  -0.0000  -0.0000  -0.0000  -0.0000  -0.0000  -0.0000
    -0.0000  -0.0000  -0.0000  -0.0000  -0.0000  -0.0000

          k =-0.2500 0.5000 0.0000 (  2151 PWs)   bands (ev):

     3.1702   5.4870   5.6439   5.8009   6.0907   6.1456   6.4005   6.8851
     6.9449   7.4096   7.4919   7.7354   8.0991   8.1550   8.3815   8.6893
    11.6521  12.3232  14.2618  16.1001  18.0592  18.5109  20.3773  21.2181
    22.1138  24.3919  25.1741  25.3118  26.8493  28.7208

     occupation numbers 
     1.0000   1.0000   1.0000   1.0000   1.0000   1.0000   1.0000   1.0000
     1.0000   1.0000   1.0000   1.0000   1.0000   1.0000   1.0000   0.6307
    -0.0000  -0.0000  -0.0000  -0.0000  -0.0000  -0.0000  -0.0000  -0.0000
    -0.0000  -0.0000  -0.0000  -0.0000  -0.0000  -0.0000

          k = 0.6250-0.3750 0.8750 (  2154 PWs)   bands (ev):

     3.9850   5.4130   5.6139   5.9615   6.1809   6.2194   6.5160   6.7865
     6.9798   7.1652   7.2971   7.5996   8.0596   8.2470   8.4302   8.6894
     9.9811  11.9402  13.2515  16.7132  17.8287  19.2891  20.7338  21.8188
    23.1006  24.1167  26.1334  26.8392  27.9625  28.8740

     occupation numbers 
     1.0000   1.0000   1.0000   1.0000   1.0000   1.0000   1.0000   1.0000
     1.0000   1.0000   1.0000   1.0000   1.0000   1.0000   1.0000   0.6291
    -0.0000  -0.0000  -0.0000  -0.0000  -0.0000  -0.0000  -0.0000  -0.0000
    -0.0000  -0.0000  -0.0000  -0.0000  -0.0000  -0.0000

          k = 0.5000-0.2500 0.7500 (  2162 PWs)   bands (ev):

     4.5653   5.1950   5.6797   5.9427   6.1816   6.2763   6.6965   6.7335
     6.9385   7.0708   7.3036   7.4567   8.0371   8.3190   8.5348   8.6550
     9.0859  12.0720  12.7148  16.8458  17.6023  20.5771  21.0001  21.7384
    22.2628  24.6267  25.7188  28.4708  28.6419  28.9668

     occupation numbers 
     1.0000   1.0000   1.0000   1.0000   1.0000   1.0000   1.0000   1.0000
     1.0000   1.0000   1.0000   1.0000   1.0000   1.0000   1.0016   0.9453
    -0.0000  -0.0000  -0.0000  -0.0000  -0.0000  -0.0000  -0.0000  -0.0000
    -0.0000  -0.0000  -0.0000  -0.0000  -0.0000  -0.0000

          k = 0.7500-0.2500 1.0000 (  2170 PWs)   bands (ev):

     4.1858   5.2454   5.4441   5.9791   6.1306   6.2819   6.4628   6.9528
     7.0904   7.4108   7.5157   7.7912   7.9820   8.3492   8.4856   8.7148
    10.5103  11.0032  11.6302  15.4284  17.7826  20.0521  22.6186  23.6197
    24.3838  24.6619  25.4773  26.9135  27.5664  28.6451

     occupation numbers 
     1.0000   1.0000   1.0000   1.0000   1.0000   1.0000   1.0000   1.0000
     1.0000   1.0000   1.0000   1.0000   1.0000   1.0000   1.0000   0.3196
    -0.0000  -0.0000  -0.0000  -0.0000  -0.0000  -0.0000  -0.0000  -0.0000
    -0.0000  -0.0000  -0.0000  -0.0000  -0.0000  -0.0000

          k = 0.6250-0.1250 0.8750 (  2167 PWs)   bands (ev):

     4.7809   5.0997   5.5037   5.8434   6.1562   6.4374   6.5940   6.8582
     7.0968   7.3307   7.4171   7.7319   7.9302   8.5820   8.6949   8.8325
     9.2342  10.5146  11.3422  16.3457  18.9264  19.4708  21.5879  23.0071
    24.5227  25.1664  25.9179  27.5049  28.2193  28.5864

     occupation numbers 
     1.0000   1.0000   1.0000   1.0000   1.0000   1.0000   1.0000   1.0000
     1.0000   1.0000   1.0000   1.0000   1.0000   1.0171   0.5623  -0.0094
    -0.0000  -0.0000  -0.0000  -0.0000  -0.0000  -0.0000  -0.0000  -0.0000
    -0.0000  -0.0000  -0.0000  -0.0000  -0.0000  -0.0000

          k = 0.5000 0.0000 0.7500 (  2160 PWs)   bands (ev):

     4.6268   5.2320   5.5623   5.8478   6.1991   6.4055   6.6297   6.7688
     6.9408   7.2790   7.3493   7.6615   7.9642   8.3690   8.5839   8.7373
     9.8775  10.2136  12.1312  16.9663  18.4454  19.7613  21.1816  22.6413
    23.0752  24.8085  25.6062  28.1079  28.3120  29.7329

     occupation numbers 
     1.0000   1.0000   1.0000   1.0000   1.0000   1.0000   1.0000   1.0000
     1.0000   1.0000   1.0000   1.0000   1.0000   1.0000   1.0183   0.1040
    -0.0000  -0.0000  -0.0000  -0.0000  -0.0000  -0.0000  -0.0000  -0.0000
    -0.0000  -0.0000  -0.0000  -0.0000  -0.0000  -0.0000

          k =-0.2500-1.0000 0.0000 (  2166 PWs)   bands (ev):

     4.7422   5.0090   5.4787   5.9458   6.0951   6.4142   6.5239   6.9405
     7.2736   7.4778   7.5755   7.7568   7.8981   8.6731   8.7360   9.2251
     9.3533  10.3665  10.4081  15.2276  17.6810  21.6160  22.2730  24.4856
    25.1400  25.5620  26.8175  27.1015  27.7156  27.7571

     occupation numbers 
     1.0000   1.0000   1.0000   1.0000   1.0000   1.0000   1.0000   1.0000
     1.0000   1.0000   1.0000   1.0000   1.0000   0.8066   0.1141  -0.0000
    -0.0000  -0.0000  -0.0000  -0.0000  -0.0000  -0.0000  -0.0000  -0.0000
    -0.0000  -0.0000  -0.0000  -0.0000  -0.0000  -0.0000

          k =-0.5000-1.0000 0.0000 (  2180 PWs)   bands (ev):

     4.9414   5.1439   5.4858   5.6778   6.3567   6.4452   6.5667   6.8853
     6.8997   7.3637   7.4832   7.7866   7.8989   8.6799   8.8049   9.3213
     9.5212   9.8507  10.1635  18.1626  18.2246  19.4153  19.8637  25.0803
    25.3013  25.5641  26.5833  26.6509  27.0014  27.9401

     occupation numbers 
     1.0000   1.0000   1.0000   1.0000   1.0000   1.0000   1.0000   1.0000
     1.0000   1.0000   1.0000   1.0000   1.0000   0.7377  -0.0257  -0.0000
    -0.0000  -0.0000  -0.0000  -0.0000  -0.0000  -0.0000  -0.0000  -0.0000
    -0.0000  -0.0000  -0.0000  -0.0000  -0.0000  -0.0000

     the Fermi energy is     8.6999 ev

!    total energy              =   -1145.99363698 Ry

     total all-electron energy =    -43178.953016 Ry
     estimated scf accuracy    <       0.00000002 Ry
     smearing contrib. (-TS)   =      -0.00050263 Ry
     internal energy E=F+TS    =   -1145.99313435 Ry

     The total energy is F=E-TS. E is the sum of the following terms:
     one-electron contribution =     -69.72161320 Ry
     hartree contribution      =      74.46232538 Ry
     xc contribution           =    -109.90628816 Ry
     ewald contribution        =    -181.26505028 Ry
     one-center paw contrib.   =    -859.56250809 Ry
      -> PAW hartree energy AE =     222.56719685 Ry
      -> PAW hartree energy PS =    -221.45298625 Ry
      -> PAW xc energy AE      =    -969.98203353 Ry
      -> PAW xc energy PS      =     109.30531485 Ry
      -> total E_H with PAW    =      75.57653597 Ry
      -> total E_XC with PAW   =    -970.58300684 Ry

     convergence has been achieved in  11 iterations

     Writing output data file ././CuPtNi.save/

     init_run     :      3.02s CPU      2.18s WALL (       1 calls)
     electrons    :     72.67s CPU     43.85s WALL (       1 calls)

     Called by init_run:
     wfcinit      :      1.81s CPU      1.04s WALL (       1 calls)
     wfcinit:atom :      0.06s CPU      0.02s WALL (      29 calls)
     wfcinit:wfcr :      1.63s CPU      0.98s WALL (      29 calls)
     potinit      :      0.34s CPU      0.36s WALL (       1 calls)
     hinit0       :      0.70s CPU      0.65s WALL (       1 calls)

     Called by electrons:
     c_bands      :     54.45s CPU     31.09s WALL (      11 calls)
     sum_band     :     12.27s CPU      7.45s WALL (      11 calls)
     v_of_rho     :      0.35s CPU      0.24s WALL (      12 calls)
     v_h          :      0.02s CPU      0.01s WALL (      12 calls)
     v_xc         :      0.33s CPU      0.23s WALL (      12 calls)
     newd         :      1.50s CPU      1.19s WALL (      12 calls)
     PAW_pot      :      4.48s CPU      4.27s WALL (      12 calls)
     mix_rho      :      0.07s CPU      0.04s WALL (      11 calls)

     Called by c_bands:
     init_us_2    :      1.46s CPU      0.71s WALL (     667 calls)
     cegterg      :     49.37s CPU     28.22s WALL (     319 calls)

     Called by sum_band:
     sum_band:wei :      0.03s CPU      0.01s WALL (      11 calls)
     sum_band:loo :      9.66s CPU      6.06s WALL (      11 calls)
     sum_band:buf :      0.07s CPU      0.04s WALL (     319 calls)
     sum_band:ini :      0.61s CPU      0.34s WALL (     319 calls)
     sum_band:cal :      0.37s CPU      0.30s WALL (     319 calls)
     sum_band:bec :      0.01s CPU      0.01s WALL (     319 calls)
     addusdens    :      2.53s CPU      1.33s WALL (      11 calls)
     addusd:skk   :      0.00s CPU      0.00s WALL (      33 calls)
     addusd:dgemm :      1.30s CPU      0.55s WALL (      33 calls)
     addusd:qvan2 :      1.04s CPU      0.61s WALL (      33 calls)

     Called by *egterg:
     cdiaghg      :      2.63s CPU      1.07s WALL (    1158 calls)
     cegterg:over :      1.30s CPU      0.48s WALL (     839 calls)
     cegterg:upda :      1.02s CPU      0.40s WALL (     839 calls)
     cegterg:last :      1.47s CPU      0.55s WALL (     555 calls)
     h_psi        :     42.18s CPU     25.72s WALL (    1187 calls)
     s_psi        :      0.92s CPU      0.40s WALL (    1187 calls)
     g_psi        :      0.48s CPU      0.18s WALL (     839 calls)

     Called by h_psi:
     h_psi:calbec :      1.04s CPU      0.77s WALL (    1187 calls)
     vloc_psi     :     39.87s CPU     24.32s WALL (    1187 calls)
     add_vuspsi   :      0.92s CPU      0.48s WALL (    1187 calls)

     General routines
     calbec       :      1.40s CPU      1.07s WALL (    1506 calls)
     fft          :      0.15s CPU      0.11s WALL (     132 calls)
     ffts         :      0.01s CPU      0.01s WALL (      11 calls)
     fftw         :     41.83s CPU     25.65s WALL (   56076 calls)

     Parallel routines

     PAW routines
     PAW_pot      :      4.48s CPU      4.27s WALL (      12 calls)
     PAW_symme    :      0.01s CPU      0.01s WALL (      23 calls)

     PWSCF        :   1m15.95s CPU     46.31s WALL


   This run was terminated on:  13: 4:12  22May2024            

=------------------------------------------------------------------------------=
   JOB DONE.
=------------------------------------------------------------------------------=
