
     Program PWSCF v.6.7MaX starts on 22May2024 at 13: 7:26 

     This program is part of the open-source Quantum ESPRESSO suite
     for quantum simulation of materials; please cite
         "P. Giannozzi et al., J. Phys.:Condens. Matter 21 395502 (2009);
         "P. Giannozzi et al., J. Phys.:Condens. Matter 29 465901 (2017);
          URL http://www.quantum-espresso.org", 
     in publications or presentations arising from this work. More details at
     http://www.quantum-espresso.org/quote

     Parallel version (MPI), running on     1 processors

     MPI processes distributed on     1 nodes
     Waiting for input...
     Reading input from standard input

     Current dimensions of program PWSCF are:
     Max number of different atomic species (ntypx) = 10
     Max number of k-points (npk) =  40000
     Max angular momentum in pseudopotentials (lmaxx) =  3
     file Cu.UPF: wavefunction(s)  4S 3D renormalized
     file Pt.UPF: wavefunction(s)  6S 5D renormalized
     file Ni.UPF: wavefunction(s)  4S 3D renormalized

     Subspace diagonalization in iterative solution of the eigenvalue problem:
     a serial algorithm will be used


     G-vector sticks info
     --------------------
     sticks:   dense  smooth     PW     G-vecs:    dense   smooth      PW
     Sum         955     955    283                19195    19195    3143



     bravais-lattice index     =            2
     lattice parameter (alat)  =      11.7000  a.u.
     unit-cell volume          =     400.4032 (a.u.)^3
     number of atoms/cell      =            3
     number of atomic types    =            3
     number of electrons       =        31.00
     number of Kohn-Sham states=           30
     kinetic-energy cutoff     =      50.0000  Ry
     charge density cutoff     =     200.0000  Ry
     scf convergence threshold =      1.0E-07
     mixing beta               =       0.7000
     number of iterations used =            8  plain     mixing
     Exchange-correlation= SLA  PW   PBX  PBC
                           (   1   4   3   4   0   0   0)

     celldm(1)=  11.700000  celldm(2)=   0.000000  celldm(3)=   0.000000
     celldm(4)=   0.000000  celldm(5)=   0.000000  celldm(6)=   0.000000

     crystal axes: (cart. coord. in units of alat)
               a(1) = (  -0.500000   0.000000   0.500000 )  
               a(2) = (   0.000000   0.500000   0.500000 )  
               a(3) = (  -0.500000   0.500000   0.000000 )  

     reciprocal axes: (cart. coord. in units 2 pi/alat)
               b(1) = ( -1.000000 -1.000000  1.000000 )  
               b(2) = (  1.000000  1.000000  1.000000 )  
               b(3) = ( -1.000000  1.000000 -1.000000 )  


     PseudoPot. # 1 for Cu read from file:
     ././Cu.UPF
     MD5 check sum: cfffd1f38ee05704b3e17f46f1730a6f
     Pseudo is Projector augmented-wave + core cor, Zval = 11.0
     Generated using &quot;atomic&quot; code by A. Dal Corso  v.6.3
     Shape of augmentation charge: PSQ
     Using radial grid of 1199 points,  6 beta functions with: 
                l(1) =   0
                l(2) =   0
                l(3) =   1
                l(4) =   1
                l(5) =   2
                l(6) =   2
     Q(r) pseudized with 0 coefficients 


     PseudoPot. # 2 for Pt read from file:
     ././Pt.UPF
     MD5 check sum: c5224e9cd7a5e36e81f2def9f50bb494
     Pseudo is Projector augmented-wave + core cor, Zval = 10.0
     Generated using &quot;atomic&quot; code by A. Dal Corso  v.6.3
     Shape of augmentation charge: PSQ
     Using radial grid of 1277 points,  6 beta functions with: 
                l(1) =   0
                l(2) =   0
                l(3) =   1
                l(4) =   1
                l(5) =   2
                l(6) =   2
     Q(r) pseudized with 0 coefficients 


     PseudoPot. # 3 for Ni read from file:
     ././Ni.UPF
     MD5 check sum: 5bc40517020091042a126ac2b4ecef1e
     Pseudo is Projector augmented-wave + core cor, Zval = 10.0
     Generated using "atomic" code by A. Dal Corso  v.5.0.2 svn rev. 9415
     Shape of augmentation charge: PSQ
     Using radial grid of 1195 points,  6 beta functions with: 
                l(1) =   0
                l(2) =   0
                l(3) =   1
                l(4) =   1
                l(5) =   2
                l(6) =   2
     Q(r) pseudized with 0 coefficients 


     atomic species   valence    mass     pseudopotential
        Cu            11.00    63.54600     Cu( 1.00)
        Pt            10.00   195.08000     Pt( 1.00)
        Ni            10.00    58.69000     Ni( 1.00)

     24 Sym. Ops. (no inversion) found


                                    s                        frac. trans.

      isym =  1     identity                                     

 cryst.   s( 1) = (     1          0          0      )
                  (     0          1          0      )
                  (     0          0          1      )

 cart.    s( 1) = (  1.0000000  0.0000000  0.0000000 )
                  (  0.0000000  1.0000000  0.0000000 )
                  (  0.0000000  0.0000000  1.0000000 )


      isym =  2     180 deg rotation - cart. axis [0,0,1]        

 cryst.   s( 2) = (     0          1         -1      )
                  (     1          0         -1      )
                  (     0          0         -1      )

 cart.    s( 2) = ( -1.0000000  0.0000000  0.0000000 )
                  (  0.0000000 -1.0000000  0.0000000 )
                  (  0.0000000  0.0000000  1.0000000 )


      isym =  3     180 deg rotation - cart. axis [0,1,0]        

 cryst.   s( 3) = (    -1          0          0      )
                  (    -1          0          1      )
                  (    -1          1          0      )

 cart.    s( 3) = ( -1.0000000  0.0000000  0.0000000 )
                  (  0.0000000  1.0000000  0.0000000 )
                  (  0.0000000  0.0000000 -1.0000000 )


      isym =  4     180 deg rotation - cart. axis [1,0,0]        

 cryst.   s( 4) = (     0         -1          1      )
                  (     0         -1          0      )
                  (     1         -1          0      )

 cart.    s( 4) = (  1.0000000  0.0000000  0.0000000 )
                  (  0.0000000 -1.0000000  0.0000000 )
                  (  0.0000000  0.0000000 -1.0000000 )


      isym =  5     120 deg rotation - cart. axis [-1,-1,-1]     

 cryst.   s( 5) = (    -1          0          1      )
                  (    -1          1          0      )
                  (    -1          0          0      )

 cart.    s( 5) = (  0.0000000  1.0000000  0.0000000 )
                  (  0.0000000  0.0000000  1.0000000 )
                  (  1.0000000  0.0000000  0.0000000 )


      isym =  6     120 deg rotation - cart. axis [-1,1,1]       

 cryst.   s( 6) = (     0          1          0      )
                  (     0          0          1      )
                  (     1          0          0      )

 cart.    s( 6) = (  0.0000000 -1.0000000  0.0000000 )
                  (  0.0000000  0.0000000  1.0000000 )
                  ( -1.0000000  0.0000000  0.0000000 )


      isym =  7     120 deg rotation - cart. axis [1,1,-1]       

 cryst.   s( 7) = (     1          0         -1      )
                  (     0          0         -1      )
                  (     0          1         -1      )

 cart.    s( 7) = (  0.0000000  1.0000000  0.0000000 )
                  (  0.0000000  0.0000000 -1.0000000 )
                  ( -1.0000000  0.0000000  0.0000000 )


      isym =  8     120 deg rotation - cart. axis [1,-1,1]       

 cryst.   s( 8) = (     0         -1          0      )
                  (     1         -1          0      )
                  (     0         -1          1      )

 cart.    s( 8) = (  0.0000000 -1.0000000  0.0000000 )
                  (  0.0000000  0.0000000 -1.0000000 )
                  (  1.0000000  0.0000000  0.0000000 )


      isym =  9     120 deg rotation - cart. axis [1,1,1]        

 cryst.   s( 9) = (     0          0         -1      )
                  (     0          1         -1      )
                  (     1          0         -1      )

 cart.    s( 9) = (  0.0000000  0.0000000  1.0000000 )
                  (  1.0000000  0.0000000  0.0000000 )
                  (  0.0000000  1.0000000  0.0000000 )


      isym = 10     120 deg rotation - cart. axis [-1,1,-1]      

 cryst.   s(10) = (    -1          1          0      )
                  (    -1          0          0      )
                  (    -1          0          1      )

 cart.    s(10) = (  0.0000000  0.0000000  1.0000000 )
                  ( -1.0000000  0.0000000  0.0000000 )
                  (  0.0000000 -1.0000000  0.0000000 )


      isym = 11     120 deg rotation - cart. axis [1,-1,-1]      

 cryst.   s(11) = (     0          0          1      )
                  (     1          0          0      )
                  (     0          1          0      )

 cart.    s(11) = (  0.0000000  0.0000000 -1.0000000 )
                  ( -1.0000000  0.0000000  0.0000000 )
                  (  0.0000000  1.0000000  0.0000000 )


      isym = 12     120 deg rotation - cart. axis [-1,-1,1]      

 cryst.   s(12) = (     1         -1          0      )
                  (     0         -1          1      )
                  (     0         -1          0      )

 cart.    s(12) = (  0.0000000  0.0000000 -1.0000000 )
                  (  1.0000000  0.0000000  0.0000000 )
                  (  0.0000000 -1.0000000  0.0000000 )


      isym = 13     inv. 180 deg rotation - cart. axis [1,1,0]   

 cryst.   s(13) = (     0          1          0      )
                  (     1          0          0      )
                  (     0          0          1      )

 cart.    s(13) = (  0.0000000 -1.0000000  0.0000000 )
                  ( -1.0000000  0.0000000  0.0000000 )
                  (  0.0000000  0.0000000  1.0000000 )


      isym = 14     inv. 180 deg rotation - cart. axis [1,-1,0]  

 cryst.   s(14) = (     1          0         -1      )
                  (     0          1         -1      )
                  (     0          0         -1      )

 cart.    s(14) = (  0.0000000  1.0000000  0.0000000 )
                  (  1.0000000  0.0000000  0.0000000 )
                  (  0.0000000  0.0000000  1.0000000 )


      isym = 15     inv.  90 deg rotation - cart. axis [0,0,-1]  

 cryst.   s(15) = (     0         -1          0      )
                  (     0         -1          1      )
                  (     1         -1          0      )

 cart.    s(15) = (  0.0000000 -1.0000000  0.0000000 )
                  (  1.0000000  0.0000000  0.0000000 )
                  (  0.0000000  0.0000000 -1.0000000 )


      isym = 16     inv.  90 deg rotation - cart. axis [0,0,1]   

 cryst.   s(16) = (    -1          0          1      )
                  (    -1          0          0      )
                  (    -1          1          0      )

 cart.    s(16) = (  0.0000000  1.0000000  0.0000000 )
                  ( -1.0000000  0.0000000  0.0000000 )
                  (  0.0000000  0.0000000 -1.0000000 )


      isym = 17     inv. 180 deg rotation - cart. axis [1,0,1]   

 cryst.   s(17) = (     1          0          0      )
                  (     0          0          1      )
                  (     0          1          0      )

 cart.    s(17) = (  0.0000000  0.0000000 -1.0000000 )
                  (  0.0000000  1.0000000  0.0000000 )
                  ( -1.0000000  0.0000000  0.0000000 )


      isym = 18     inv. 180 deg rotation - cart. axis [-1,0,1]  

 cryst.   s(18) = (    -1          0          0      )
                  (    -1          1          0      )
                  (    -1          0          1      )

 cart.    s(18) = (  0.0000000  0.0000000  1.0000000 )
                  (  0.0000000  1.0000000  0.0000000 )
                  (  1.0000000  0.0000000  0.0000000 )


      isym = 19     inv.  90 deg rotation - cart. axis [0,1,0]   

 cryst.   s(19) = (     0         -1          1      )
                  (     1         -1          0      )
                  (     0         -1          0      )

 cart.    s(19) = (  0.0000000  0.0000000 -1.0000000 )
                  (  0.0000000 -1.0000000  0.0000000 )
                  (  1.0000000  0.0000000  0.0000000 )


      isym = 20     inv.  90 deg rotation - cart. axis [0,-1,0]  

 cryst.   s(20) = (     0          1         -1      )
                  (     0          0         -1      )
                  (     1          0         -1      )

 cart.    s(20) = (  0.0000000  0.0000000  1.0000000 )
                  (  0.0000000 -1.0000000  0.0000000 )
                  ( -1.0000000  0.0000000  0.0000000 )


      isym = 21     inv. 180 deg rotation - cart. axis [0,1,1]   

 cryst.   s(21) = (     1         -1          0      )
                  (     0         -1          0      )
                  (     0         -1          1      )

 cart.    s(21) = (  1.0000000  0.0000000  0.0000000 )
                  (  0.0000000  0.0000000 -1.0000000 )
                  (  0.0000000 -1.0000000  0.0000000 )


      isym = 22     inv. 180 deg rotation - cart. axis [0,1,-1]  

 cryst.   s(22) = (     0          0          1      )
                  (     0          1          0      )
                  (     1          0          0      )

 cart.    s(22) = (  1.0000000  0.0000000  0.0000000 )
                  (  0.0000000  0.0000000  1.0000000 )
                  (  0.0000000  1.0000000  0.0000000 )


      isym = 23     inv.  90 deg rotation - cart. axis [-1,0,0]  

 cryst.   s(23) = (     0          0         -1      )
                  (     1          0         -1      )
                  (     0          1         -1      )

 cart.    s(23) = ( -1.0000000  0.0000000  0.0000000 )
                  (  0.0000000  0.0000000 -1.0000000 )
                  (  0.0000000  1.0000000  0.0000000 )


      isym = 24     inv.  90 deg rotation - cart. axis [1,0,0]   

 cryst.   s(24) = (    -1          1          0      )
                  (    -1          0          1      )
                  (    -1          0          0      )

 cart.    s(24) = ( -1.0000000  0.0000000  0.0000000 )
                  (  0.0000000  0.0000000  1.0000000 )
                  (  0.0000000 -1.0000000  0.0000000 )


     point group T_d (-43m) 
     there are  5 classes
     the character table:

       E     8C3   3C2   6S4   6s_d 
A_1    1.00  1.00  1.00  1.00  1.00
A_2    1.00  1.00  1.00 -1.00 -1.00
E      2.00 -1.00  2.00  0.00  0.00
T_1    3.00  0.00 -1.00  1.00 -1.00
T_2    3.00  0.00 -1.00 -1.00  1.00

     the symmetry operations in each class and the name of the first element:

     E        1
          identity                                               
     8C3      5    7    8    6   12    9   10   11
          120 deg rotation - cart. axis [-1,-1,-1]               
     3C2      2    3    4
          180 deg rotation - cart. axis [0,0,1]                  
     6S4     15   16   20   19   23   24
          inv.  90 deg rotation - cart. axis [0,0,-1]            
     6s_d    13   14   17   18   21   22
          inv. 180 deg rotation - cart. axis [1,1,0]             

   Cartesian axes

     site n.     atom                  positions (alat units)
         1           Cu  tau(   1) = (   0.0000000   0.0000000   0.0000000  )
         2           Pt  tau(   2) = (   0.5000000   0.5000000   0.5000000  )
         3           Ni  tau(   3) = (   0.2500000   0.2500000   0.2500000  )

   Crystallographic axes

     site n.     atom                  positions (cryst. coord.)
         1           Cu  tau(   1) = (  0.0000000  0.0000000  0.0000000  )
         2           Pt  tau(   2) = ( -0.5000000  1.5000000 -0.5000000  )
         3           Ni  tau(   3) = ( -0.2500000  0.7500000 -0.2500000  )

     number of k points=    29  Methfessel-Paxton smearing, width (Ry)=  0.0050
                       cart. coord. in units 2pi/alat
        k(    1) = (   0.0000000   0.0000000   0.0000000), wk =   0.0039062
        k(    2) = (  -0.1250000   0.1250000  -0.1250000), wk =   0.0312500
        k(    3) = (  -0.2500000   0.2500000  -0.2500000), wk =   0.0312500
        k(    4) = (  -0.3750000   0.3750000  -0.3750000), wk =   0.0312500
        k(    5) = (   0.5000000  -0.5000000   0.5000000), wk =   0.0156250
        k(    6) = (   0.0000000   0.2500000   0.0000000), wk =   0.0234375
        k(    7) = (  -0.1250000   0.3750000  -0.1250000), wk =   0.0937500
        k(    8) = (  -0.2500000   0.5000000  -0.2500000), wk =   0.0937500
        k(    9) = (   0.6250000  -0.3750000   0.6250000), wk =   0.0937500
        k(   10) = (   0.5000000  -0.2500000   0.5000000), wk =   0.0937500
        k(   11) = (   0.3750000  -0.1250000   0.3750000), wk =   0.0937500
        k(   12) = (   0.2500000   0.0000000   0.2500000), wk =   0.0468750
        k(   13) = (   0.0000000   0.5000000   0.0000000), wk =   0.0234375
        k(   14) = (  -0.1250000   0.6250000  -0.1250000), wk =   0.0937500
        k(   15) = (   0.7500000  -0.2500000   0.7500000), wk =   0.0937500
        k(   16) = (   0.6250000  -0.1250000   0.6250000), wk =   0.0937500
        k(   17) = (   0.5000000   0.0000000   0.5000000), wk =   0.0468750
        k(   18) = (   0.0000000   0.7500000   0.0000000), wk =   0.0234375
        k(   19) = (   0.8750000  -0.1250000   0.8750000), wk =   0.0937500
        k(   20) = (   0.7500000   0.0000000   0.7500000), wk =   0.0468750
        k(   21) = (   0.0000000  -1.0000000   0.0000000), wk =   0.0117188
        k(   22) = (  -0.2500000   0.5000000   0.0000000), wk =   0.0937500
        k(   23) = (   0.6250000  -0.3750000   0.8750000), wk =   0.1875000
        k(   24) = (   0.5000000  -0.2500000   0.7500000), wk =   0.0937500
        k(   25) = (   0.7500000  -0.2500000   1.0000000), wk =   0.0937500
        k(   26) = (   0.6250000  -0.1250000   0.8750000), wk =   0.1875000
        k(   27) = (   0.5000000   0.0000000   0.7500000), wk =   0.0937500
        k(   28) = (  -0.2500000  -1.0000000   0.0000000), wk =   0.0468750
        k(   29) = (  -0.5000000  -1.0000000   0.0000000), wk =   0.0234375

                       cryst. coord.
        k(    1) = (   0.0000000   0.0000000   0.0000000), wk =   0.0039062
        k(    2) = (   0.0000000   0.0000000   0.1250000), wk =   0.0312500
        k(    3) = (   0.0000000   0.0000000   0.2500000), wk =   0.0312500
        k(    4) = (   0.0000000   0.0000000   0.3750000), wk =   0.0312500
        k(    5) = (   0.0000000   0.0000000  -0.5000000), wk =   0.0156250
        k(    6) = (   0.0000000   0.1250000   0.1250000), wk =   0.0234375
        k(    7) = (   0.0000000   0.1250000   0.2500000), wk =   0.0937500
        k(    8) = (   0.0000000   0.1250000   0.3750000), wk =   0.0937500
        k(    9) = (   0.0000000   0.1250000  -0.5000000), wk =   0.0937500
        k(   10) = (   0.0000000   0.1250000  -0.3750000), wk =   0.0937500
        k(   11) = (   0.0000000   0.1250000  -0.2500000), wk =   0.0937500
        k(   12) = (   0.0000000   0.1250000  -0.1250000), wk =   0.0468750
        k(   13) = (   0.0000000   0.2500000   0.2500000), wk =   0.0234375
        k(   14) = (   0.0000000   0.2500000   0.3750000), wk =   0.0937500
        k(   15) = (   0.0000000   0.2500000  -0.5000000), wk =   0.0937500
        k(   16) = (   0.0000000   0.2500000  -0.3750000), wk =   0.0937500
        k(   17) = (   0.0000000   0.2500000  -0.2500000), wk =   0.0468750
        k(   18) = (   0.0000000   0.3750000   0.3750000), wk =   0.0234375
        k(   19) = (   0.0000000   0.3750000  -0.5000000), wk =   0.0937500
        k(   20) = (   0.0000000   0.3750000  -0.3750000), wk =   0.0468750
        k(   21) = (   0.0000000  -0.5000000  -0.5000000), wk =   0.0117188
        k(   22) = (   0.1250000   0.2500000   0.3750000), wk =   0.0937500
        k(   23) = (   0.1250000   0.2500000  -0.5000000), wk =   0.1875000
        k(   24) = (   0.1250000   0.2500000  -0.3750000), wk =   0.0937500
        k(   25) = (   0.1250000   0.3750000  -0.5000000), wk =   0.0937500
        k(   26) = (   0.1250000   0.3750000  -0.3750000), wk =   0.1875000
        k(   27) = (   0.1250000   0.3750000  -0.2500000), wk =   0.0937500
        k(   28) = (   0.1250000  -0.5000000  -0.3750000), wk =   0.0468750
        k(   29) = (   0.2500000  -0.5000000  -0.2500000), wk =   0.0234375

     Dense  grid:    19195 G-vectors     FFT dimensions: (  40,  40,  40)

     Dynamical RAM for                 wfc:       1.09 MB

     Dynamical RAM for     wfc (w. buffer):      32.84 MB

     Dynamical RAM for           str. fact:       0.88 MB

     Dynamical RAM for           local pot:       0.00 MB

     Dynamical RAM for          nlocal pot:       1.97 MB

     Dynamical RAM for                qrad:       3.41 MB

     Dynamical RAM for          rho,v,vnew:       2.34 MB

     Dynamical RAM for               rhoin:       0.78 MB

     Dynamical RAM for            rho*nmix:       4.69 MB

     Dynamical RAM for           G-vectors:       1.24 MB

     Dynamical RAM for          h,s,v(r/c):       0.16 MB

     Dynamical RAM for          <psi|beta>:       0.02 MB

     Dynamical RAM for                 psi:       2.19 MB

     Dynamical RAM for                hpsi:       2.19 MB

     Dynamical RAM for                spsi:       2.19 MB

     Dynamical RAM for      wfcinit/wfcrot:       2.21 MB

     Dynamical RAM for           addusdens:      54.77 MB

     Estimated static dynamical RAM per process >      51.76 MB

     Estimated max dynamical RAM per process >     106.53 MB

     Check: negative core charge=   -0.000005

     Initial potential from superposition of free atoms

     starting charge   30.99935, renormalised to   31.00000
     Starting wfcs are   27 randomized atomic wfcs +    3 random wfcs
     Checking if some PAW data can be deallocated... 

     total cpu time spent up to now is        2.9 secs

     Self-consistent Calculation

     iteration #  1     ecut=    50.00 Ry     beta= 0.70
     Davidson diagonalization with overlap
     ethr =  1.00E-02,  avg # of iterations =  5.7

     total cpu time spent up to now is        9.4 secs

     total energy              =   -1144.34115844 Ry
     estimated scf accuracy    <       2.06045172 Ry

     iteration #  2     ecut=    50.00 Ry     beta= 0.70
     Davidson diagonalization with overlap
     ethr =  6.65E-03,  avg # of iterations =  2.1

     total cpu time spent up to now is       15.0 secs

     total energy              =   -1142.85148936 Ry
     estimated scf accuracy    <      54.87291123 Ry

     iteration #  3     ecut=    50.00 Ry     beta= 0.70
     Davidson diagonalization with overlap
     ethr =  6.65E-03,  avg # of iterations =  2.0

     total cpu time spent up to now is       20.3 secs

     total energy              =   -1145.82448109 Ry
     estimated scf accuracy    <       1.00047948 Ry

     iteration #  4     ecut=    50.00 Ry     beta= 0.70
     Davidson diagonalization with overlap
     ethr =  3.23E-03,  avg # of iterations =  1.0

     total cpu time spent up to now is       25.1 secs

     total energy              =   -1145.92996863 Ry
     estimated scf accuracy    <       0.36092134 Ry

     iteration #  5     ecut=    50.00 Ry     beta= 0.70
     Davidson diagonalization with overlap
     ethr =  1.16E-03,  avg # of iterations =  1.0

     total cpu time spent up to now is       29.8 secs

     total energy              =   -1145.93624953 Ry
     estimated scf accuracy    <       0.10048096 Ry

     iteration #  6     ecut=    50.00 Ry     beta= 0.70
     Davidson diagonalization with overlap
     ethr =  3.24E-04,  avg # of iterations =  1.3

     total cpu time spent up to now is       34.6 secs

     total energy              =   -1145.94119641 Ry
     estimated scf accuracy    <       0.00563891 Ry

     iteration #  7     ecut=    50.00 Ry     beta= 0.70
     Davidson diagonalization with overlap
     ethr =  1.82E-05,  avg # of iterations =  5.8

     total cpu time spent up to now is       40.5 secs

     total energy              =   -1145.94238597 Ry
     estimated scf accuracy    <       0.00563160 Ry

     iteration #  8     ecut=    50.00 Ry     beta= 0.70
     Davidson diagonalization with overlap
     ethr =  1.82E-05,  avg # of iterations =  1.0

     total cpu time spent up to now is       45.2 secs

     total energy              =   -1145.94279534 Ry
     estimated scf accuracy    <       0.00010721 Ry

     iteration #  9     ecut=    50.00 Ry     beta= 0.70
     Davidson diagonalization with overlap
     ethr =  3.46E-07,  avg # of iterations =  5.2

     total cpu time spent up to now is       51.6 secs

     total energy              =   -1145.94286877 Ry
     estimated scf accuracy    <       0.00004275 Ry

     iteration # 10     ecut=    50.00 Ry     beta= 0.70
     Davidson diagonalization with overlap
     ethr =  1.38E-07,  avg # of iterations =  1.1

     total cpu time spent up to now is       56.3 secs

     total energy              =   -1145.94285885 Ry
     estimated scf accuracy    <       0.00004131 Ry

     iteration # 11     ecut=    50.00 Ry     beta= 0.70
     Davidson diagonalization with overlap
     ethr =  1.33E-07,  avg # of iterations =  1.0

     total cpu time spent up to now is       61.0 secs

     total energy              =   -1145.94286218 Ry
     estimated scf accuracy    <       0.00000085 Ry

     iteration # 12     ecut=    50.00 Ry     beta= 0.70
     Davidson diagonalization with overlap
     ethr =  2.73E-09,  avg # of iterations =  3.5

     total cpu time spent up to now is       66.4 secs

     End of self-consistent calculation

          k = 0.0000 0.0000 0.0000 (  2421 PWs)   bands (ev):

     1.0530   4.4780   4.4780   4.7724   4.7724   4.7724   5.6348   5.6348
     5.6348   6.5498   6.5498   6.7966   6.7966   6.7966   7.1785   7.1785
    14.0756  14.0756  14.0756  14.3941  16.0593  16.1127  16.1127  16.1127
    18.6946  18.6946  18.6946  21.9115  22.5097  22.5097

     occupation numbers 
     1.0000   1.0000   1.0000   1.0000   1.0000   1.0000   1.0000   1.0000
     1.0000   1.0000   1.0000   1.0000   1.0000   1.0000   1.0284   1.0284
    -0.0000  -0.0000  -0.0000  -0.0000  -0.0000  -0.0000  -0.0000  -0.0000
    -0.0000  -0.0000  -0.0000  -0.0000  -0.0000  -0.0000

          k =-0.1250 0.1250-0.1250 (  2385 PWs)   bands (ev):

     1.2503   4.5276   4.5276   4.7399   4.8168   4.8168   5.6152   5.6152
     5.6842   6.4695   6.4695   6.6401   6.7870   6.7870   7.1888   7.1888
    12.0907  13.9276  13.9276  14.8448  16.1324  16.1415  16.1415  17.0013
    18.6855  18.6855  19.3679  23.0748  23.1903  23.1903

     occupation numbers 
     1.0000   1.0000   1.0000   1.0000   1.0000   1.0000   1.0000   1.0000
     1.0000   1.0000   1.0000   1.0000   1.0000   1.0000   1.0340   1.0340
    -0.0000  -0.0000  -0.0000  -0.0000  -0.0000  -0.0000  -0.0000  -0.0000
    -0.0000  -0.0000  -0.0000  -0.0000  -0.0000  -0.0000

          k =-0.2500 0.2500-0.2500 (  2406 PWs)   bands (ev):

     1.8197   4.6663   4.6663   4.6968   4.9283   4.9283   5.5673   5.5673
     5.7584   6.2357   6.2484   6.2484   6.7932   6.7932   7.1903   7.1903
     9.9155  13.6445  13.6445  14.4586  15.9164  15.9164  16.4032  17.8299
    19.2606  19.2606  22.0158  24.7201  24.7201  25.5225

     occupation numbers 
     1.0000   1.0000   1.0000   1.0000   1.0000   1.0000   1.0000   1.0000
     1.0000   1.0000   1.0000   1.0000   1.0000   1.0000   1.0345   1.0345
    -0.0000  -0.0000  -0.0000  -0.0000  -0.0000  -0.0000  -0.0000  -0.0000
    -0.0000  -0.0000  -0.0000  -0.0000  -0.0000  -0.0000

          k =-0.3750 0.3750-0.3750 (  2403 PWs)   bands (ev):

     2.6561   4.6845   4.8500   4.8500   5.0503   5.0503   5.4928   5.5235
     5.5235   5.9707   5.9737   5.9737   6.8247   6.8247   7.1655   7.1655
     8.2779  13.4100  13.4100  14.2151  15.5633  15.5633  16.0210  19.8088
    20.5238  20.5238  24.6407  24.9648  24.9649  26.0731

     occupation numbers 
     1.0000   1.0000   1.0000   1.0000   1.0000   1.0000   1.0000   1.0000
     1.0000   1.0000   1.0000   1.0000   1.0000   1.0000   1.0197   1.0197
    -0.0000  -0.0000  -0.0000  -0.0000  -0.0000  -0.0000  -0.0000  -0.0000
    -0.0000  -0.0000  -0.0000  -0.0000  -0.0000  -0.0000

          k = 0.5000-0.5000 0.5000 (  2392 PWs)   bands (ev):

     3.2472   4.6070   4.9512   4.9512   5.1071   5.1071   5.1325   5.5180
     5.5180   5.8185   5.8185   5.9629   6.8462   6.8462   7.1459   7.1459
     7.6593  13.3191  13.3191  14.1331  15.4171  15.4171  15.8849  21.5964
    21.5964  21.7183  23.0180  23.6620  23.6620  27.8756

     occupation numbers 
     1.0000   1.0000   1.0000   1.0000   1.0000   1.0000   1.0000   1.0000
     1.0000   1.0000   1.0000   1.0000   1.0000   1.0000   1.0090   1.0090
    -0.0000  -0.0000  -0.0000  -0.0000  -0.0000  -0.0000  -0.0000  -0.0000
    -0.0000  -0.0000  -0.0000  -0.0000  -0.0000  -0.0000

          k = 0.0000 0.2500 0.0000 (  2381 PWs)   bands (ev):

     1.3149   4.5282   4.5470   4.7035   4.8427   4.8427   5.5551   5.6757
     5.6757   6.3626   6.5455   6.7347   6.7442   6.7442   7.1229   7.2266
    12.7316  13.0339  13.0339  14.4047  16.1715  16.7507  16.9430  16.9430
    18.5929  19.5173  19.5173  22.2370  22.5284  24.7547

     occupation numbers 
     1.0000   1.0000   1.0000   1.0000   1.0000   1.0000   1.0000   1.0000
     1.0000   1.0000   1.0000   1.0000   1.0000   1.0000   1.0027   0.9835
    -0.0000  -0.0000  -0.0000  -0.0000  -0.0000  -0.0000  -0.0000  -0.0000
    -0.0000  -0.0000  -0.0000  -0.0000  -0.0000  -0.0000

          k =-0.1250 0.3750-0.1250 (  2388 PWs)   bands (ev):

     1.7573   4.5708   4.6551   4.6745   4.9330   4.9494   5.4293   5.6919
     5.7316   6.2034   6.4143   6.4955   6.7553   6.7815   7.0843   7.2436
    10.7027  12.4179  13.0832  13.9259  16.0398  16.7664  17.2546  17.9507
    19.3432  20.2194  21.2024  23.2692  23.4533  26.7618

     occupation numbers 
     1.0000   1.0000   1.0000   1.0000   1.0000   1.0000   1.0000   1.0000
     1.0000   1.0000   1.0000   1.0000   1.0000   1.0000   1.0002   0.8833
    -0.0000  -0.0000  -0.0000  -0.0000  -0.0000  -0.0000  -0.0000  -0.0000
    -0.0000  -0.0000  -0.0000  -0.0000  -0.0000  -0.0000

          k =-0.2500 0.5000-0.2500 (  2379 PWs)   bands (ev):

     2.5081   4.5636   4.7384   4.8150   5.0469   5.1118   5.3263   5.6623
     5.6951   6.0258   6.1259   6.1928   6.8056   6.8068   7.0848   7.2312
     8.7907  12.1834  12.4256  13.9677  16.1294  16.9788  17.3966  17.9622
    20.8090  21.2526  23.8684  24.1720  25.1214  26.2484

     occupation numbers 
     1.0000   1.0000   1.0000   1.0000   1.0000   1.0000   1.0000   1.0000
     1.0000   1.0000   1.0000   1.0000   1.0000   1.0000   1.0002   0.9623
    -0.0000  -0.0000  -0.0000  -0.0000  -0.0000  -0.0000  -0.0000  -0.0000
    -0.0000  -0.0000  -0.0000  -0.0000  -0.0000  -0.0000

          k = 0.6250-0.3750 0.6250 (  2392 PWs)   bands (ev):

     3.2828   4.4306   4.8145   4.9342   5.0869   5.1568   5.4493   5.5291
     5.6032   5.8371   5.8982   6.0557   6.8098   6.8498   7.1495   7.1675
     7.7157  11.8076  12.3815  14.0285  15.9467  16.5293  17.6732  19.4479
    21.7089  21.9153  23.3055  23.6951  25.7894  26.8209

     occupation numbers 
     1.0000   1.0000   1.0000   1.0000   1.0000   1.0000   1.0000   1.0000
     1.0000   1.0000   1.0000   1.0000   1.0000   1.0000   1.0106   1.0210
    -0.0000  -0.0000  -0.0000  -0.0000  -0.0000  -0.0000  -0.0000  -0.0000
    -0.0000  -0.0000  -0.0000  -0.0000  -0.0000  -0.0000

          k = 0.5000-0.2500 0.5000 (  2393 PWs)   bands (ev):

     3.0652   4.5172   4.8366   4.9137   5.1118   5.1620   5.3515   5.4706
     5.6522   5.8475   5.9262   6.1210   6.7908   6.8708   7.0762   7.2284
     7.9733  11.4522  12.9985  14.2571  15.8188  16.1257  17.8851  19.7575
    20.1337  21.6869  23.8345  24.8899  25.3773  26.1604

     occupation numbers 
     1.0000   1.0000   1.0000   1.0000   1.0000   1.0000   1.0000   1.0000
     1.0000   1.0000   1.0000   1.0000   1.0000   1.0000   1.0001   0.9755
    -0.0000  -0.0000  -0.0000  -0.0000  -0.0000  -0.0000  -0.0000  -0.0000
    -0.0000  -0.0000  -0.0000  -0.0000  -0.0000  -0.0000

          k = 0.3750-0.1250 0.3750 (  2395 PWs)   bands (ev):

     2.2337   4.6120   4.7200   4.7615   5.0226   5.0671   5.4496   5.5556
     5.7056   6.0732   6.0850   6.3324   6.7845   6.8257   7.0524   7.2653
     9.3871  11.4529  13.9402  14.7205  15.6973  15.8257  17.4560  18.6327
    18.7457  21.6543  22.8584  23.9182  24.8563  26.5388

     occupation numbers 
     1.0000   1.0000   1.0000   1.0000   1.0000   1.0000   1.0000   1.0000
     1.0000   1.0000   1.0000   1.0000   1.0000   1.0000   1.0000   0.6703
    -0.0000  -0.0000  -0.0000  -0.0000  -0.0000  -0.0000  -0.0000  -0.0000
    -0.0000  -0.0000  -0.0000  -0.0000  -0.0000  -0.0000

          k = 0.2500 0.0000 0.2500 (  2401 PWs)   bands (ev):

     1.5710   4.5979   4.6055   4.6758   4.8812   4.9178   5.5274   5.6743
     5.6887   6.3011   6.3313   6.5606   6.7573   6.7915   7.1111   7.2481
    11.1803  12.0705  14.8085  15.1994  15.3733  15.6607  16.5447  18.1297
    18.2423  20.0884  20.7274  22.4845  24.6903  24.9926

     occupation numbers 
     1.0000   1.0000   1.0000   1.0000   1.0000   1.0000   1.0000   1.0000
     1.0000   1.0000   1.0000   1.0000   1.0000   1.0000   1.0013   0.8472
    -0.0000  -0.0000  -0.0000  -0.0000  -0.0000  -0.0000  -0.0000  -0.0000
    -0.0000  -0.0000  -0.0000  -0.0000  -0.0000  -0.0000

          k = 0.0000 0.5000 0.0000 (  2413 PWs)   bands (ev):

     2.0545   4.4554   4.6624   4.7294   4.9961   4.9961   5.2614   5.7716
     5.7716   6.1829   6.5326   6.6749   6.7116   6.7116   6.9740   7.2428
    11.4488  11.4488  11.7261  12.1718  15.4036  18.3677  18.3677  19.6679
    20.4655  21.4054  21.4054  22.5854  22.5895  27.7114

     occupation numbers 
     1.0000   1.0000   1.0000   1.0000   1.0000   1.0000   1.0000   1.0000
     1.0000   1.0000   1.0000   1.0000   1.0000   1.0000   1.0000   0.8895
    -0.0000  -0.0000  -0.0000  -0.0000  -0.0000  -0.0000  -0.0000  -0.0000
    -0.0000  -0.0000  -0.0000  -0.0000  -0.0000  -0.0000

          k =-0.1250 0.6250-0.1250 (  2389 PWs)   bands (ev):

     2.6583   4.3853   4.5845   4.8529   5.0865   5.0883   5.2439   5.7684
     5.7909   6.1454   6.3757   6.5197   6.7560   6.8151   6.9938   7.2527
     9.5260  10.8582  10.9446  12.7516  15.6421  18.3894  18.7153  20.4103
    21.7113  22.2633  23.0445  23.2283  24.1438  26.0510

     occupation numbers 
     1.0000   1.0000   1.0000   1.0000   1.0000   1.0000   1.0000   1.0000
     1.0000   1.0000   1.0000   1.0000   1.0000   1.0000   1.0000   0.8048
    -0.0000  -0.0000  -0.0000  -0.0000  -0.0000  -0.0000  -0.0000  -0.0000
    -0.0000  -0.0000  -0.0000  -0.0000  -0.0000  -0.0000

          k = 0.7500-0.2500 0.7500 (  2395 PWs)   bands (ev):

     3.3996   4.2657   4.5585   4.9394   5.0246   5.2262   5.4340   5.6897
     5.8914   6.0552   6.0571   6.3753   6.7160   6.9273   7.1629   7.2459
     7.9503  10.0288  11.0350  13.3013  16.8725  17.9964  18.4110  20.2759
    21.9705  22.2263  23.7467  23.8351  25.6027  26.7629

     occupation numbers 
     1.0000   1.0000   1.0000   1.0000   1.0000   1.0000   1.0000   1.0000
     1.0000   1.0000   1.0000   1.0000   1.0000   1.0000   1.0180   0.8651
    -0.0000  -0.0000  -0.0000  -0.0000  -0.0000  -0.0000  -0.0000  -0.0000
    -0.0000  -0.0000  -0.0000  -0.0000  -0.0000  -0.0000

          k = 0.6250-0.1250 0.6250 (  2379 PWs)   bands (ev):

     3.5884   4.2789   4.6926   4.9035   4.9518   5.3228   5.5113   5.6210
     5.7339   5.8855   6.0483   6.2899   6.7171   6.8917   7.1608   7.2697
     7.8575   9.5062  11.6947  13.6676  17.3424  17.9464  18.9409  19.6250
    20.0761  21.0594  24.3065  25.5299  26.1543  26.8058

     occupation numbers 
     1.0000   1.0000   1.0000   1.0000   1.0000   1.0000   1.0000   1.0000
     1.0000   1.0000   1.0000   1.0000   1.0000   1.0000   1.0167   0.6187
    -0.0000  -0.0000  -0.0000  -0.0000  -0.0000  -0.0000  -0.0000  -0.0000
    -0.0000  -0.0000  -0.0000  -0.0000  -0.0000  -0.0000

          k = 0.5000 0.0000 0.5000 (  2385 PWs)   bands (ev):

     2.9146   4.5057   4.7357   4.8862   5.0992   5.2200   5.4131   5.4336
     5.7193   5.8748   6.0254   6.3578   6.7496   6.8999   6.9866   7.2967
     8.9808   9.6188  12.7583  14.1204  16.9618  17.0759  17.7443  18.8365
    20.5035  21.5899  22.9699  24.9028  25.2968  27.1088

     occupation numbers 
     1.0000   1.0000   1.0000   1.0000   1.0000   1.0000   1.0000   1.0000
     1.0000   1.0000   1.0000   1.0000   1.0000   1.0000   1.0000   0.2913
    -0.0000  -0.0000  -0.0000  -0.0000  -0.0000  -0.0000  -0.0000  -0.0000
    -0.0000  -0.0000  -0.0000  -0.0000  -0.0000  -0.0000

          k = 0.0000 0.7500 0.0000 (  2393 PWs)   bands (ev):

     3.0549   4.2173   4.4762   4.9457   5.1224   5.1224   5.2705   5.7983
     5.7983   6.2158   6.5102   6.5929   6.8009   6.9640   6.9640   7.2938
     9.4042  10.0914  10.0914  11.7479  15.0259  20.1651  20.1651  22.1642
    22.6849  22.9687  23.3743  23.3743  23.7639  25.9847

     occupation numbers 
     1.0000   1.0000   1.0000   1.0000   1.0000   1.0000   1.0000   1.0000
     1.0000   1.0000   1.0000   1.0000   1.0000   1.0000   1.0000   0.3240
    -0.0000  -0.0000  -0.0000  -0.0000  -0.0000  -0.0000  -0.0000  -0.0000
    -0.0000  -0.0000  -0.0000  -0.0000  -0.0000  -0.0000

          k = 0.8750-0.1250 0.8750 (  2391 PWs)   bands (ev):

     3.5571   4.0991   4.4503   4.9941   5.0677   5.2181   5.3873   5.7384
     5.9246   6.1991   6.4232   6.5266   6.6345   7.1645   7.1977   7.4245
     8.3776   8.9457   9.9349  12.4096  15.3981  20.1180  20.4253  22.0725
    22.2260  23.3957  24.0274  24.0312  25.1195  25.8081

     occupation numbers 
     1.0000   1.0000   1.0000   1.0000   1.0000   1.0000   1.0000   1.0000
     1.0000   1.0000   1.0000   1.0000   1.0000   1.0191   1.0354  -0.0051
    -0.0000  -0.0000  -0.0000  -0.0000  -0.0000  -0.0000  -0.0000  -0.0000
    -0.0000  -0.0000  -0.0000  -0.0000  -0.0000  -0.0000

          k = 0.7500 0.0000 0.7500 (  2382 PWs)   bands (ev):

     3.9504   4.0083   4.5173   4.8755   4.9759   5.3582   5.4638   5.6341
     6.0594   6.0857   6.2384   6.4226   6.6354   7.2445   7.2792   7.3473
     7.9571   8.2157  10.5681  13.1348  16.7733  19.3863  19.8374  20.0788
    20.4712  23.5123  23.8302  25.2102  25.7221  27.0935

     occupation numbers 
     1.0000   1.0000   1.0000   1.0000   1.0000   1.0000   1.0000   1.0000
     1.0000   1.0000   1.0000   1.0000   1.0000   0.8764   0.5017  -0.0250
    -0.0000  -0.0000  -0.0000  -0.0000  -0.0000  -0.0000  -0.0000  -0.0000
    -0.0000  -0.0000  -0.0000  -0.0000  -0.0000  -0.0000

          k = 0.0000-1.0000 0.0000 (  2402 PWs)   bands (ev):

     3.6480   3.9756   4.4598   5.0512   5.1682   5.1682   5.4307   5.7757
     5.7757   6.2621   6.4907   6.5262   6.7237   7.2428   7.2428   7.7191
     7.8410   9.4544   9.4544  11.6710  14.9214  21.6465  21.6465  22.7413
    22.9473  23.3361  23.3361  23.7605  25.5265  25.5266

     occupation numbers 
     1.0000   1.0000   1.0000   1.0000   1.0000   1.0000   1.0000   1.0000
     1.0000   1.0000   1.0000   1.0000   1.0000   0.8897   0.8897  -0.0000
    -0.0000  -0.0000  -0.0000  -0.0000  -0.0000  -0.0000  -0.0000  -0.0000
    -0.0000  -0.0000  -0.0000  -0.0000  -0.0000  -0.0000

          k =-0.2500 0.5000 0.0000 (  2391 PWs)   bands (ev):

     2.2886   4.5177   4.6611   4.7952   5.0316   5.0801   5.2886   5.6969
     5.7410   6.1246   6.2163   6.4637   6.7648   6.8203   6.9989   7.2669
     9.9829  10.6933  12.4773  14.1051  16.1730  16.4264  18.1398  19.0740
    19.9143  21.9486  22.7930  22.9880  24.3449  26.1344

     occupation numbers 
     1.0000   1.0000   1.0000   1.0000   1.0000   1.0000   1.0000   1.0000
     1.0000   1.0000   1.0000   1.0000   1.0000   1.0000   1.0000   0.6523
    -0.0000  -0.0000  -0.0000  -0.0000  -0.0000  -0.0000  -0.0000  -0.0000
    -0.0000  -0.0000  -0.0000  -0.0000  -0.0000  -0.0000

          k = 0.6250-0.3750 0.8750 (  2398 PWs)   bands (ev):

     3.0482   4.4397   4.6349   4.9323   5.1077   5.1435   5.3903   5.6082
     5.7733   5.9310   6.0335   6.3486   6.7332   6.9023   7.0451   7.2687
     8.4536  10.3056  11.5573  14.7133  15.7712  17.2515  18.5285  19.6143
    20.8404  21.7539  23.7359  24.3309  25.3322  26.3867

     occupation numbers 
     1.0000   1.0000   1.0000   1.0000   1.0000   1.0000   1.0000   1.0000
     1.0000   1.0000   1.0000   1.0000   1.0000   1.0000   1.0000   0.6305
    -0.0000  -0.0000  -0.0000  -0.0000  -0.0000  -0.0000  -0.0000  -0.0000
    -0.0000  -0.0000  -0.0000  -0.0000  -0.0000  -0.0000

          k = 0.5000-0.2500 0.7500 (  2392 PWs)   bands (ev):

     3.5890   4.2405   4.6787   4.9119   5.1210   5.1945   5.5315   5.5688
     5.7298   5.8609   6.0618   6.2102   6.7137   6.9641   7.1395   7.2408
     7.6268  10.3982  11.0891  14.8919  15.4914  18.4285  18.8646  19.5343
    19.9556  22.2686  23.3111  25.8417  26.0963  26.3745

     occupation numbers 
     1.0000   1.0000   1.0000   1.0000   1.0000   1.0000   1.0000   1.0000
     1.0000   1.0000   1.0000   1.0000   1.0000   1.0000   1.0066   0.9045
    -0.0000  -0.0000  -0.0000  -0.0000  -0.0000  -0.0000  -0.0000  -0.0000
    -0.0000  -0.0000  -0.0000  -0.0000  -0.0000  -0.0000

          k = 0.7500-0.2500 1.0000 (  2385 PWs)   bands (ev):

     3.2443   4.2857   4.4732   4.9394   5.0671   5.1987   5.3530   5.7386
     5.8690   6.1302   6.2398   6.5167   6.6596   7.0036   7.0897   7.2959
     8.9701   9.4836  10.0687  13.4286  15.8190  17.8851  20.3737  21.2829
    22.0453  22.3353  23.0950  24.3927  24.9656  26.1212

     occupation numbers 
     1.0000   1.0000   1.0000   1.0000   1.0000   1.0000   1.0000   1.0000
     1.0000   1.0000   1.0000   1.0000   1.0000   1.0000   1.0003   0.3007
    -0.0000  -0.0000  -0.0000  -0.0000  -0.0000  -0.0000  -0.0000  -0.0000
    -0.0000  -0.0000  -0.0000  -0.0000  -0.0000  -0.0000

          k = 0.6250-0.1250 0.8750 (  2383 PWs)   bands (ev):

     3.8160   4.1405   4.5002   4.8359   5.0911   5.3321   5.4540   5.6585
     5.8810   6.0649   6.1804   6.4634   6.6097   7.1946   7.2718   7.4200
     7.8003   8.9704   9.8254  14.3184  16.9002  17.2951  19.4085  20.7189
    22.1077  22.8409  23.4865  24.9840  25.6549  26.1630

     occupation numbers 
     1.0000   1.0000   1.0000   1.0000   1.0000   1.0000   1.0000   1.0000
     1.0000   1.0000   1.0000   1.0000   1.0000   1.0354   0.5927  -0.0064
    -0.0000  -0.0000  -0.0000  -0.0000  -0.0000  -0.0000  -0.0000  -0.0000
    -0.0000  -0.0000  -0.0000  -0.0000  -0.0000  -0.0000

          k = 0.5000 0.0000 0.7500 (  2387 PWs)   bands (ev):

     3.6596   4.2695   4.5638   4.8326   5.1358   5.3009   5.4848   5.5922
     5.7308   6.0189   6.1039   6.4220   6.6435   7.0253   7.1746   7.3093
     8.3444   8.7249  10.5302  14.9527  16.2876  17.7260  19.0052  20.3545
    20.7982  22.3109  23.3085  25.6568  25.7371  27.1709

     occupation numbers 
     1.0000   1.0000   1.0000   1.0000   1.0000   1.0000   1.0000   1.0000
     1.0000   1.0000   1.0000   1.0000   1.0000   1.0000   1.0258   0.1645
    -0.0000  -0.0000  -0.0000  -0.0000  -0.0000  -0.0000  -0.0000  -0.0000
    -0.0000  -0.0000  -0.0000  -0.0000  -0.0000  -0.0000

          k =-0.2500-1.0000 0.0000 (  2386 PWs)   bands (ev):

     3.8158   4.0440   4.4553   4.9330   5.0346   5.3073   5.4036   5.7257
     6.0686   6.1827   6.2867   6.5005   6.5603   7.2535   7.3064   7.8181
     7.8321   8.8697   9.0731  13.2214  15.6987  19.2792  20.1260  22.0427
    22.9386  23.1383  24.4887  24.4974  24.9478  25.4030

     occupation numbers 
     1.0000   1.0000   1.0000   1.0000   1.0000   1.0000   1.0000   1.0000
     1.0000   1.0000   1.0000   1.0000   1.0000   0.7970   0.1910  -0.0000
    -0.0000  -0.0000  -0.0000  -0.0000  -0.0000  -0.0000  -0.0000  -0.0000
    -0.0000  -0.0000  -0.0000  -0.0000  -0.0000  -0.0000

          k =-0.5000-1.0000 0.0000 (  2400 PWs)   bands (ev):

     4.0148   4.1404   4.4500   4.7176   5.2705   5.3328   5.4319   5.6821
     5.6954   6.0852   6.2810   6.5124   6.5593   7.2592   7.3633   7.8229
     8.0685   8.5641   8.5898  16.0234  16.0728  17.4917  17.7033  22.7027
    22.9029  23.1614  24.1395  24.2053  24.4157  25.5343

     occupation numbers 
     1.0000   1.0000   1.0000   1.0000   1.0000   1.0000   1.0000   1.0000
     1.0000   1.0000   1.0000   1.0000   1.0000   0.7385  -0.0354  -0.0000
    -0.0000  -0.0000  -0.0000  -0.0000  -0.0000  -0.0000  -0.0000  -0.0000
    -0.0000  -0.0000  -0.0000  -0.0000  -0.0000  -0.0000

     the Fermi energy is     7.2793 ev

!    total energy              =   -1145.94286242 Ry

     total all-electron energy =    -43178.902242 Ry
     estimated scf accuracy    <       0.00000006 Ry
     smearing contrib. (-TS)   =      -0.00048450 Ry
     internal energy E=F+TS    =   -1145.94237791 Ry

     The total energy is F=E-TS. E is the sum of the following terms:
     one-electron contribution =     -79.40748019 Ry
     hartree contribution      =      77.86999842 Ry
     xc contribution           =    -109.79785995 Ry
     ewald contribution        =    -175.06795454 Ry
     one-center paw contrib.   =    -859.53908165 Ry
      -> PAW hartree energy AE =     219.10055920 Ry
      -> PAW hartree energy PS =    -217.96329762 Ry
      -> PAW xc energy AE      =    -969.70667109 Ry
      -> PAW xc energy PS      =     109.03032787 Ry
      -> total E_H with PAW    =      79.00725999 Ry
      -> total E_XC with PAW   =    -970.47420317 Ry

     convergence has been achieved in  12 iterations

     Writing output data file ././CuPtNi.save/

     init_run     :      3.82s CPU      2.73s WALL (       1 calls)
     electrons    :    105.44s CPU     63.48s WALL (       1 calls)

     Called by init_run:
     wfcinit      :      2.57s CPU      1.57s WALL (       1 calls)
     wfcinit:atom :      0.05s CPU      0.02s WALL (      29 calls)
     wfcinit:wfcr :      2.40s CPU      1.50s WALL (      29 calls)
     potinit      :      0.35s CPU      0.37s WALL (       1 calls)
     hinit0       :      0.71s CPU      0.65s WALL (       1 calls)

     Called by electrons:
     c_bands      :     78.15s CPU     45.13s WALL (      12 calls)
     sum_band     :     20.66s CPU     12.44s WALL (      12 calls)
     v_of_rho     :      0.65s CPU      0.40s WALL (      13 calls)
     v_h          :      0.04s CPU      0.03s WALL (      13 calls)
     v_xc         :      0.60s CPU      0.37s WALL (      13 calls)
     newd         :      1.68s CPU      1.43s WALL (      13 calls)
     PAW_pot      :      4.68s CPU      4.47s WALL (      13 calls)
     mix_rho      :      0.08s CPU      0.06s WALL (      12 calls)

     Called by c_bands:
     init_us_2    :      1.65s CPU      0.85s WALL (     725 calls)
     cegterg      :     72.09s CPU     41.67s WALL (     348 calls)

     Called by sum_band:
     sum_band:wei :      0.03s CPU      0.01s WALL (      12 calls)
     sum_band:loo :     17.38s CPU     10.77s WALL (      12 calls)
     sum_band:buf :      0.08s CPU      0.05s WALL (     348 calls)
     sum_band:ini :      0.72s CPU      0.40s WALL (     348 calls)
     sum_band:cal :      0.34s CPU      0.23s WALL (     348 calls)
     sum_band:bec :      0.01s CPU      0.01s WALL (     348 calls)
     addusdens    :      3.14s CPU      1.60s WALL (      12 calls)
     addusd:skk   :      0.01s CPU      0.00s WALL (      36 calls)
     addusd:dgemm :      1.72s CPU      0.64s WALL (      36 calls)
     addusd:qvan2 :      1.17s CPU      0.73s WALL (      36 calls)

     Called by *egterg:
     cdiaghg      :      2.84s CPU      1.12s WALL (    1234 calls)
     cegterg:over :      1.61s CPU      0.59s WALL (     886 calls)
     cegterg:upda :      1.25s CPU      0.47s WALL (     886 calls)
     cegterg:last :      1.67s CPU      0.59s WALL (     574 calls)
     h_psi        :     64.07s CPU     39.13s WALL (    1263 calls)
     s_psi        :      1.13s CPU      0.49s WALL (    1263 calls)
     g_psi        :      0.58s CPU      0.21s WALL (     886 calls)

     Called by h_psi:
     h_psi:calbec :      1.12s CPU      0.79s WALL (    1263 calls)
     vloc_psi     :     61.39s CPU     37.62s WALL (    1263 calls)
     add_vuspsi   :      1.10s CPU      0.51s WALL (    1263 calls)

     General routines
     calbec       :      1.45s CPU      1.02s WALL (    1611 calls)
     fft          :      0.34s CPU      0.21s WALL (     143 calls)
     ffts         :      0.03s CPU      0.01s WALL (      12 calls)
     fftw         :     67.97s CPU     41.82s WALL (   60874 calls)

     Parallel routines

     PAW routines
     PAW_pot      :      4.68s CPU      4.47s WALL (      13 calls)
     PAW_symme    :      0.02s CPU      0.01s WALL (      25 calls)

     PWSCF        :   1m49.54s CPU   1m 6.48s WALL


   This run was terminated on:  13: 8:33  22May2024            

=------------------------------------------------------------------------------=
   JOB DONE.
=------------------------------------------------------------------------------=
