
     Program PWSCF v.6.7MaX starts on 22May2024 at 12:57: 5 

     This program is part of the open-source Quantum ESPRESSO suite
     for quantum simulation of materials; please cite
         "P. Giannozzi et al., J. Phys.:Condens. Matter 21 395502 (2009);
         "P. Giannozzi et al., J. Phys.:Condens. Matter 29 465901 (2017);
          URL http://www.quantum-espresso.org", 
     in publications or presentations arising from this work. More details at
     http://www.quantum-espresso.org/quote

     Parallel version (MPI), running on     1 processors

     MPI processes distributed on     1 nodes
     Waiting for input...
     Reading input from standard input

     Current dimensions of program PWSCF are:
     Max number of different atomic species (ntypx) = 10
     Max number of k-points (npk) =  40000
     Max angular momentum in pseudopotentials (lmaxx) =  3
     file Cu.UPF: wavefunction(s)  4S 3D renormalized
     file Pt.UPF: wavefunction(s)  6S 5D renormalized
     file Ni.UPF: wavefunction(s)  4S 3D renormalized

     Subspace diagonalization in iterative solution of the eigenvalue problem:
     a serial algorithm will be used


     G-vector sticks info
     --------------------
     sticks:   dense  smooth     PW     G-vecs:    dense   smooth      PW
     Sum         757     757    241                13803    13803    2397



     bravais-lattice index     =            2
     lattice parameter (alat)  =      10.5000  a.u.
     unit-cell volume          =     289.4062 (a.u.)^3
     number of atoms/cell      =            3
     number of atomic types    =            3
     number of electrons       =        31.00
     number of Kohn-Sham states=           30
     kinetic-energy cutoff     =      50.0000  Ry
     charge density cutoff     =     200.0000  Ry
     scf convergence threshold =      1.0E-07
     mixing beta               =       0.7000
     number of iterations used =            8  plain     mixing
     Exchange-correlation= SLA  PW   PBX  PBC
                           (   1   4   3   4   0   0   0)

     celldm(1)=  10.500000  celldm(2)=   0.000000  celldm(3)=   0.000000
     celldm(4)=   0.000000  celldm(5)=   0.000000  celldm(6)=   0.000000

     crystal axes: (cart. coord. in units of alat)
               a(1) = (  -0.500000   0.000000   0.500000 )  
               a(2) = (   0.000000   0.500000   0.500000 )  
               a(3) = (  -0.500000   0.500000   0.000000 )  

     reciprocal axes: (cart. coord. in units 2 pi/alat)
               b(1) = ( -1.000000 -1.000000  1.000000 )  
               b(2) = (  1.000000  1.000000  1.000000 )  
               b(3) = ( -1.000000  1.000000 -1.000000 )  


     PseudoPot. # 1 for Cu read from file:
     ././Cu.UPF
     MD5 check sum: cfffd1f38ee05704b3e17f46f1730a6f
     Pseudo is Projector augmented-wave + core cor, Zval = 11.0
     Generated using &quot;atomic&quot; code by A. Dal Corso  v.6.3
     Shape of augmentation charge: PSQ
     Using radial grid of 1199 points,  6 beta functions with: 
                l(1) =   0
                l(2) =   0
                l(3) =   1
                l(4) =   1
                l(5) =   2
                l(6) =   2
     Q(r) pseudized with 0 coefficients 


     PseudoPot. # 2 for Pt read from file:
     ././Pt.UPF
     MD5 check sum: c5224e9cd7a5e36e81f2def9f50bb494
     Pseudo is Projector augmented-wave + core cor, Zval = 10.0
     Generated using &quot;atomic&quot; code by A. Dal Corso  v.6.3
     Shape of augmentation charge: PSQ
     Using radial grid of 1277 points,  6 beta functions with: 
                l(1) =   0
                l(2) =   0
                l(3) =   1
                l(4) =   1
                l(5) =   2
                l(6) =   2
     Q(r) pseudized with 0 coefficients 


     PseudoPot. # 3 for Ni read from file:
     ././Ni.UPF
     MD5 check sum: 5bc40517020091042a126ac2b4ecef1e
     Pseudo is Projector augmented-wave + core cor, Zval = 10.0
     Generated using "atomic" code by A. Dal Corso  v.5.0.2 svn rev. 9415
     Shape of augmentation charge: PSQ
     Using radial grid of 1195 points,  6 beta functions with: 
                l(1) =   0
                l(2) =   0
                l(3) =   1
                l(4) =   1
                l(5) =   2
                l(6) =   2
     Q(r) pseudized with 0 coefficients 


     atomic species   valence    mass     pseudopotential
        Cu            11.00    63.54600     Cu( 1.00)
        Pt            10.00   195.08000     Pt( 1.00)
        Ni            10.00    58.69000     Ni( 1.00)

     24 Sym. Ops. (no inversion) found


                                    s                        frac. trans.

      isym =  1     identity                                     

 cryst.   s( 1) = (     1          0          0      )
                  (     0          1          0      )
                  (     0          0          1      )

 cart.    s( 1) = (  1.0000000  0.0000000  0.0000000 )
                  (  0.0000000  1.0000000  0.0000000 )
                  (  0.0000000  0.0000000  1.0000000 )


      isym =  2     180 deg rotation - cart. axis [0,0,1]        

 cryst.   s( 2) = (     0          1         -1      )
                  (     1          0         -1      )
                  (     0          0         -1      )

 cart.    s( 2) = ( -1.0000000  0.0000000  0.0000000 )
                  (  0.0000000 -1.0000000  0.0000000 )
                  (  0.0000000  0.0000000  1.0000000 )


      isym =  3     180 deg rotation - cart. axis [0,1,0]        

 cryst.   s( 3) = (    -1          0          0      )
                  (    -1          0          1      )
                  (    -1          1          0      )

 cart.    s( 3) = ( -1.0000000  0.0000000  0.0000000 )
                  (  0.0000000  1.0000000  0.0000000 )
                  (  0.0000000  0.0000000 -1.0000000 )


      isym =  4     180 deg rotation - cart. axis [1,0,0]        

 cryst.   s( 4) = (     0         -1          1      )
                  (     0         -1          0      )
                  (     1         -1          0      )

 cart.    s( 4) = (  1.0000000  0.0000000  0.0000000 )
                  (  0.0000000 -1.0000000  0.0000000 )
                  (  0.0000000  0.0000000 -1.0000000 )


      isym =  5     120 deg rotation - cart. axis [-1,-1,-1]     

 cryst.   s( 5) = (    -1          0          1      )
                  (    -1          1          0      )
                  (    -1          0          0      )

 cart.    s( 5) = (  0.0000000  1.0000000  0.0000000 )
                  (  0.0000000  0.0000000  1.0000000 )
                  (  1.0000000  0.0000000  0.0000000 )


      isym =  6     120 deg rotation - cart. axis [-1,1,1]       

 cryst.   s( 6) = (     0          1          0      )
                  (     0          0          1      )
                  (     1          0          0      )

 cart.    s( 6) = (  0.0000000 -1.0000000  0.0000000 )
                  (  0.0000000  0.0000000  1.0000000 )
                  ( -1.0000000  0.0000000  0.0000000 )


      isym =  7     120 deg rotation - cart. axis [1,1,-1]       

 cryst.   s( 7) = (     1          0         -1      )
                  (     0          0         -1      )
                  (     0          1         -1      )

 cart.    s( 7) = (  0.0000000  1.0000000  0.0000000 )
                  (  0.0000000  0.0000000 -1.0000000 )
                  ( -1.0000000  0.0000000  0.0000000 )


      isym =  8     120 deg rotation - cart. axis [1,-1,1]       

 cryst.   s( 8) = (     0         -1          0      )
                  (     1         -1          0      )
                  (     0         -1          1      )

 cart.    s( 8) = (  0.0000000 -1.0000000  0.0000000 )
                  (  0.0000000  0.0000000 -1.0000000 )
                  (  1.0000000  0.0000000  0.0000000 )


      isym =  9     120 deg rotation - cart. axis [1,1,1]        

 cryst.   s( 9) = (     0          0         -1      )
                  (     0          1         -1      )
                  (     1          0         -1      )

 cart.    s( 9) = (  0.0000000  0.0000000  1.0000000 )
                  (  1.0000000  0.0000000  0.0000000 )
                  (  0.0000000  1.0000000  0.0000000 )


      isym = 10     120 deg rotation - cart. axis [-1,1,-1]      

 cryst.   s(10) = (    -1          1          0      )
                  (    -1          0          0      )
                  (    -1          0          1      )

 cart.    s(10) = (  0.0000000  0.0000000  1.0000000 )
                  ( -1.0000000  0.0000000  0.0000000 )
                  (  0.0000000 -1.0000000  0.0000000 )


      isym = 11     120 deg rotation - cart. axis [1,-1,-1]      

 cryst.   s(11) = (     0          0          1      )
                  (     1          0          0      )
                  (     0          1          0      )

 cart.    s(11) = (  0.0000000  0.0000000 -1.0000000 )
                  ( -1.0000000  0.0000000  0.0000000 )
                  (  0.0000000  1.0000000  0.0000000 )


      isym = 12     120 deg rotation - cart. axis [-1,-1,1]      

 cryst.   s(12) = (     1         -1          0      )
                  (     0         -1          1      )
                  (     0         -1          0      )

 cart.    s(12) = (  0.0000000  0.0000000 -1.0000000 )
                  (  1.0000000  0.0000000  0.0000000 )
                  (  0.0000000 -1.0000000  0.0000000 )


      isym = 13     inv. 180 deg rotation - cart. axis [1,1,0]   

 cryst.   s(13) = (     0          1          0      )
                  (     1          0          0      )
                  (     0          0          1      )

 cart.    s(13) = (  0.0000000 -1.0000000  0.0000000 )
                  ( -1.0000000  0.0000000  0.0000000 )
                  (  0.0000000  0.0000000  1.0000000 )


      isym = 14     inv. 180 deg rotation - cart. axis [1,-1,0]  

 cryst.   s(14) = (     1          0         -1      )
                  (     0          1         -1      )
                  (     0          0         -1      )

 cart.    s(14) = (  0.0000000  1.0000000  0.0000000 )
                  (  1.0000000  0.0000000  0.0000000 )
                  (  0.0000000  0.0000000  1.0000000 )


      isym = 15     inv.  90 deg rotation - cart. axis [0,0,-1]  

 cryst.   s(15) = (     0         -1          0      )
                  (     0         -1          1      )
                  (     1         -1          0      )

 cart.    s(15) = (  0.0000000 -1.0000000  0.0000000 )
                  (  1.0000000  0.0000000  0.0000000 )
                  (  0.0000000  0.0000000 -1.0000000 )


      isym = 16     inv.  90 deg rotation - cart. axis [0,0,1]   

 cryst.   s(16) = (    -1          0          1      )
                  (    -1          0          0      )
                  (    -1          1          0      )

 cart.    s(16) = (  0.0000000  1.0000000  0.0000000 )
                  ( -1.0000000  0.0000000  0.0000000 )
                  (  0.0000000  0.0000000 -1.0000000 )


      isym = 17     inv. 180 deg rotation - cart. axis [1,0,1]   

 cryst.   s(17) = (     1          0          0      )
                  (     0          0          1      )
                  (     0          1          0      )

 cart.    s(17) = (  0.0000000  0.0000000 -1.0000000 )
                  (  0.0000000  1.0000000  0.0000000 )
                  ( -1.0000000  0.0000000  0.0000000 )


      isym = 18     inv. 180 deg rotation - cart. axis [-1,0,1]  

 cryst.   s(18) = (    -1          0          0      )
                  (    -1          1          0      )
                  (    -1          0          1      )

 cart.    s(18) = (  0.0000000  0.0000000  1.0000000 )
                  (  0.0000000  1.0000000  0.0000000 )
                  (  1.0000000  0.0000000  0.0000000 )


      isym = 19     inv.  90 deg rotation - cart. axis [0,1,0]   

 cryst.   s(19) = (     0         -1          1      )
                  (     1         -1          0      )
                  (     0         -1          0      )

 cart.    s(19) = (  0.0000000  0.0000000 -1.0000000 )
                  (  0.0000000 -1.0000000  0.0000000 )
                  (  1.0000000  0.0000000  0.0000000 )


      isym = 20     inv.  90 deg rotation - cart. axis [0,-1,0]  

 cryst.   s(20) = (     0          1         -1      )
                  (     0          0         -1      )
                  (     1          0         -1      )

 cart.    s(20) = (  0.0000000  0.0000000  1.0000000 )
                  (  0.0000000 -1.0000000  0.0000000 )
                  ( -1.0000000  0.0000000  0.0000000 )


      isym = 21     inv. 180 deg rotation - cart. axis [0,1,1]   

 cryst.   s(21) = (     1         -1          0      )
                  (     0         -1          0      )
                  (     0         -1          1      )

 cart.    s(21) = (  1.0000000  0.0000000  0.0000000 )
                  (  0.0000000  0.0000000 -1.0000000 )
                  (  0.0000000 -1.0000000  0.0000000 )


      isym = 22     inv. 180 deg rotation - cart. axis [0,1,-1]  

 cryst.   s(22) = (     0          0          1      )
                  (     0          1          0      )
                  (     1          0          0      )

 cart.    s(22) = (  1.0000000  0.0000000  0.0000000 )
                  (  0.0000000  0.0000000  1.0000000 )
                  (  0.0000000  1.0000000  0.0000000 )


      isym = 23     inv.  90 deg rotation - cart. axis [-1,0,0]  

 cryst.   s(23) = (     0          0         -1      )
                  (     1          0         -1      )
                  (     0          1         -1      )

 cart.    s(23) = ( -1.0000000  0.0000000  0.0000000 )
                  (  0.0000000  0.0000000 -1.0000000 )
                  (  0.0000000  1.0000000  0.0000000 )


      isym = 24     inv.  90 deg rotation - cart. axis [1,0,0]   

 cryst.   s(24) = (    -1          1          0      )
                  (    -1          0          1      )
                  (    -1          0          0      )

 cart.    s(24) = ( -1.0000000  0.0000000  0.0000000 )
                  (  0.0000000  0.0000000  1.0000000 )
                  (  0.0000000 -1.0000000  0.0000000 )


     point group T_d (-43m) 
     there are  5 classes
     the character table:

       E     8C3   3C2   6S4   6s_d 
A_1    1.00  1.00  1.00  1.00  1.00
A_2    1.00  1.00  1.00 -1.00 -1.00
E      2.00 -1.00  2.00  0.00  0.00
T_1    3.00  0.00 -1.00  1.00 -1.00
T_2    3.00  0.00 -1.00 -1.00  1.00

     the symmetry operations in each class and the name of the first element:

     E        1
          identity                                               
     8C3      5    7    8    6   12    9   10   11
          120 deg rotation - cart. axis [-1,-1,-1]               
     3C2      2    3    4
          180 deg rotation - cart. axis [0,0,1]                  
     6S4     15   16   20   19   23   24
          inv.  90 deg rotation - cart. axis [0,0,-1]            
     6s_d    13   14   17   18   21   22
          inv. 180 deg rotation - cart. axis [1,1,0]             

   Cartesian axes

     site n.     atom                  positions (alat units)
         1           Cu  tau(   1) = (   0.0000000   0.0000000   0.0000000  )
         2           Pt  tau(   2) = (   0.5000000   0.5000000   0.5000000  )
         3           Ni  tau(   3) = (   0.2500000   0.2500000   0.2500000  )

   Crystallographic axes

     site n.     atom                  positions (cryst. coord.)
         1           Cu  tau(   1) = (  0.0000000  0.0000000  0.0000000  )
         2           Pt  tau(   2) = ( -0.5000000  1.5000000 -0.5000000  )
         3           Ni  tau(   3) = ( -0.2500000  0.7500000 -0.2500000  )

     number of k points=    29  Methfessel-Paxton smearing, width (Ry)=  0.0050
                       cart. coord. in units 2pi/alat
        k(    1) = (   0.0000000   0.0000000   0.0000000), wk =   0.0039062
        k(    2) = (  -0.1250000   0.1250000  -0.1250000), wk =   0.0312500
        k(    3) = (  -0.2500000   0.2500000  -0.2500000), wk =   0.0312500
        k(    4) = (  -0.3750000   0.3750000  -0.3750000), wk =   0.0312500
        k(    5) = (   0.5000000  -0.5000000   0.5000000), wk =   0.0156250
        k(    6) = (   0.0000000   0.2500000   0.0000000), wk =   0.0234375
        k(    7) = (  -0.1250000   0.3750000  -0.1250000), wk =   0.0937500
        k(    8) = (  -0.2500000   0.5000000  -0.2500000), wk =   0.0937500
        k(    9) = (   0.6250000  -0.3750000   0.6250000), wk =   0.0937500
        k(   10) = (   0.5000000  -0.2500000   0.5000000), wk =   0.0937500
        k(   11) = (   0.3750000  -0.1250000   0.3750000), wk =   0.0937500
        k(   12) = (   0.2500000   0.0000000   0.2500000), wk =   0.0468750
        k(   13) = (   0.0000000   0.5000000   0.0000000), wk =   0.0234375
        k(   14) = (  -0.1250000   0.6250000  -0.1250000), wk =   0.0937500
        k(   15) = (   0.7500000  -0.2500000   0.7500000), wk =   0.0937500
        k(   16) = (   0.6250000  -0.1250000   0.6250000), wk =   0.0937500
        k(   17) = (   0.5000000   0.0000000   0.5000000), wk =   0.0468750
        k(   18) = (   0.0000000   0.7500000   0.0000000), wk =   0.0234375
        k(   19) = (   0.8750000  -0.1250000   0.8750000), wk =   0.0937500
        k(   20) = (   0.7500000   0.0000000   0.7500000), wk =   0.0468750
        k(   21) = (   0.0000000  -1.0000000   0.0000000), wk =   0.0117188
        k(   22) = (  -0.2500000   0.5000000   0.0000000), wk =   0.0937500
        k(   23) = (   0.6250000  -0.3750000   0.8750000), wk =   0.1875000
        k(   24) = (   0.5000000  -0.2500000   0.7500000), wk =   0.0937500
        k(   25) = (   0.7500000  -0.2500000   1.0000000), wk =   0.0937500
        k(   26) = (   0.6250000  -0.1250000   0.8750000), wk =   0.1875000
        k(   27) = (   0.5000000   0.0000000   0.7500000), wk =   0.0937500
        k(   28) = (  -0.2500000  -1.0000000   0.0000000), wk =   0.0468750
        k(   29) = (  -0.5000000  -1.0000000   0.0000000), wk =   0.0234375

                       cryst. coord.
        k(    1) = (   0.0000000   0.0000000   0.0000000), wk =   0.0039062
        k(    2) = (   0.0000000   0.0000000   0.1250000), wk =   0.0312500
        k(    3) = (   0.0000000   0.0000000   0.2500000), wk =   0.0312500
        k(    4) = (   0.0000000   0.0000000   0.3750000), wk =   0.0312500
        k(    5) = (   0.0000000   0.0000000  -0.5000000), wk =   0.0156250
        k(    6) = (   0.0000000   0.1250000   0.1250000), wk =   0.0234375
        k(    7) = (   0.0000000   0.1250000   0.2500000), wk =   0.0937500
        k(    8) = (   0.0000000   0.1250000   0.3750000), wk =   0.0937500
        k(    9) = (   0.0000000   0.1250000  -0.5000000), wk =   0.0937500
        k(   10) = (   0.0000000   0.1250000  -0.3750000), wk =   0.0937500
        k(   11) = (   0.0000000   0.1250000  -0.2500000), wk =   0.0937500
        k(   12) = (   0.0000000   0.1250000  -0.1250000), wk =   0.0468750
        k(   13) = (   0.0000000   0.2500000   0.2500000), wk =   0.0234375
        k(   14) = (   0.0000000   0.2500000   0.3750000), wk =   0.0937500
        k(   15) = (   0.0000000   0.2500000  -0.5000000), wk =   0.0937500
        k(   16) = (   0.0000000   0.2500000  -0.3750000), wk =   0.0937500
        k(   17) = (   0.0000000   0.2500000  -0.2500000), wk =   0.0468750
        k(   18) = (   0.0000000   0.3750000   0.3750000), wk =   0.0234375
        k(   19) = (   0.0000000   0.3750000  -0.5000000), wk =   0.0937500
        k(   20) = (   0.0000000   0.3750000  -0.3750000), wk =   0.0468750
        k(   21) = (   0.0000000  -0.5000000  -0.5000000), wk =   0.0117188
        k(   22) = (   0.1250000   0.2500000   0.3750000), wk =   0.0937500
        k(   23) = (   0.1250000   0.2500000  -0.5000000), wk =   0.1875000
        k(   24) = (   0.1250000   0.2500000  -0.3750000), wk =   0.0937500
        k(   25) = (   0.1250000   0.3750000  -0.5000000), wk =   0.0937500
        k(   26) = (   0.1250000   0.3750000  -0.3750000), wk =   0.1875000
        k(   27) = (   0.1250000   0.3750000  -0.2500000), wk =   0.0937500
        k(   28) = (   0.1250000  -0.5000000  -0.3750000), wk =   0.0468750
        k(   29) = (   0.2500000  -0.5000000  -0.2500000), wk =   0.0234375

     Dense  grid:    13803 G-vectors     FFT dimensions: (  36,  36,  36)

     Dynamical RAM for                 wfc:       0.79 MB

     Dynamical RAM for     wfc (w. buffer):      23.73 MB

     Dynamical RAM for           str. fact:       0.63 MB

     Dynamical RAM for           local pot:       0.00 MB

     Dynamical RAM for          nlocal pot:       1.42 MB

     Dynamical RAM for                qrad:       3.41 MB

     Dynamical RAM for          rho,v,vnew:       1.70 MB

     Dynamical RAM for               rhoin:       0.57 MB

     Dynamical RAM for            rho*nmix:       3.37 MB

     Dynamical RAM for           G-vectors:       0.90 MB

     Dynamical RAM for          h,s,v(r/c):       0.16 MB

     Dynamical RAM for          <psi|beta>:       0.02 MB

     Dynamical RAM for                 psi:       1.58 MB

     Dynamical RAM for                hpsi:       1.58 MB

     Dynamical RAM for                spsi:       1.58 MB

     Dynamical RAM for      wfcinit/wfcrot:       1.60 MB

     Dynamical RAM for           addusdens:      39.39 MB

     Estimated static dynamical RAM per process >      38.35 MB

     Estimated max dynamical RAM per process >      77.73 MB

     Check: negative core charge=   -0.000002

     Initial potential from superposition of free atoms

     starting charge   30.99935, renormalised to   31.00000
     Starting wfcs are   27 randomized atomic wfcs +    3 random wfcs
     Checking if some PAW data can be deallocated... 

     total cpu time spent up to now is        2.7 secs

     Self-consistent Calculation

     iteration #  1     ecut=    50.00 Ry     beta= 0.70
     Davidson diagonalization with overlap
     ethr =  1.00E-02,  avg # of iterations =  6.1

     total cpu time spent up to now is        7.1 secs

     total energy              =   -1144.68930923 Ry
     estimated scf accuracy    <       1.77218434 Ry

     iteration #  2     ecut=    50.00 Ry     beta= 0.70
     Davidson diagonalization with overlap
     ethr =  5.72E-03,  avg # of iterations =  2.1

     total cpu time spent up to now is       10.9 secs

     total energy              =   -1142.65807044 Ry
     estimated scf accuracy    <      44.14377670 Ry

     iteration #  3     ecut=    50.00 Ry     beta= 0.70
     Davidson diagonalization with overlap
     ethr =  5.72E-03,  avg # of iterations =  2.0

     total cpu time spent up to now is       14.4 secs

     total energy              =   -1145.97860567 Ry
     estimated scf accuracy    <       0.34990917 Ry

     iteration #  4     ecut=    50.00 Ry     beta= 0.70
     Davidson diagonalization with overlap
     ethr =  1.13E-03,  avg # of iterations =  1.6

     total cpu time spent up to now is       17.5 secs

     total energy              =   -1146.02407156 Ry
     estimated scf accuracy    <       0.02154452 Ry

     iteration #  5     ecut=    50.00 Ry     beta= 0.70
     Davidson diagonalization with overlap
     ethr =  6.95E-05,  avg # of iterations =  5.1

     total cpu time spent up to now is       21.5 secs

     total energy              =   -1146.02804934 Ry
     estimated scf accuracy    <       0.00231816 Ry

     iteration #  6     ecut=    50.00 Ry     beta= 0.70
     Davidson diagonalization with overlap
     ethr =  7.48E-06,  avg # of iterations =  5.4

     total cpu time spent up to now is       25.9 secs

     total energy              =   -1146.02792156 Ry
     estimated scf accuracy    <       0.01861582 Ry

     iteration #  7     ecut=    50.00 Ry     beta= 0.70
     Davidson diagonalization with overlap
     ethr =  7.48E-06,  avg # of iterations =  2.0

     total cpu time spent up to now is       29.4 secs

     total energy              =   -1146.02912807 Ry
     estimated scf accuracy    <       0.00124078 Ry

     iteration #  8     ecut=    50.00 Ry     beta= 0.70
     Davidson diagonalization with overlap
     ethr =  4.00E-06,  avg # of iterations =  1.1

     total cpu time spent up to now is       32.6 secs

     total energy              =   -1146.02924750 Ry
     estimated scf accuracy    <       0.00004152 Ry

     iteration #  9     ecut=    50.00 Ry     beta= 0.70
     Davidson diagonalization with overlap
     ethr =  1.34E-07,  avg # of iterations =  2.4

     total cpu time spent up to now is       36.1 secs

     total energy              =   -1146.02925619 Ry
     estimated scf accuracy    <       0.00000079 Ry

     iteration # 10     ecut=    50.00 Ry     beta= 0.70
     Davidson diagonalization with overlap
     ethr =  2.54E-09,  avg # of iterations =  5.1

     total cpu time spent up to now is       41.1 secs

     total energy              =   -1146.02925773 Ry
     estimated scf accuracy    <       0.00000023 Ry

     iteration # 11     ecut=    50.00 Ry     beta= 0.70
     Davidson diagonalization with overlap
     ethr =  7.42E-10,  avg # of iterations =  1.4

     total cpu time spent up to now is       44.4 secs

     End of self-consistent calculation

          k = 0.0000 0.0000 0.0000 (  1759 PWs)   bands (ev):

     3.8645   7.7791   7.7791   8.3185   8.3185   8.3185   9.6896   9.6896
     9.6896  11.2682  11.2682  11.5803  11.5803  11.5803  12.1985  12.1985
    20.2924  20.2924  20.2924  22.5723  22.9382  23.4793  23.4793  23.4793
    25.5966  25.5966  25.5966  30.7347  30.7347  31.6175

     occupation numbers 
     1.0000   1.0000   1.0000   1.0000   1.0000   1.0000   1.0000   1.0000
     1.0000   1.0000   1.0000   1.0000   1.0000   1.0000   1.0195   1.0195
    -0.0000  -0.0000  -0.0000  -0.0000  -0.0000  -0.0000  -0.0000  -0.0000
    -0.0000  -0.0000  -0.0000  -0.0000  -0.0000  -0.0000

          k =-0.1250 0.1250-0.1250 (  1747 PWs)   bands (ev):

     4.1225   7.8529   7.8529   8.2663   8.3929   8.3929   9.6635   9.6635
     9.7682  11.1540  11.1540  11.3204  11.5296  11.5296  12.2111  12.2111
    18.4349  20.2533  20.2533  22.2195  23.2379  23.2379  23.3687  24.1763
    25.7913  25.7913  27.0842  31.4008  31.4008  32.8201

     occupation numbers 
     1.0000   1.0000   1.0000   1.0000   1.0000   1.0000   1.0000   1.0000
     1.0000   1.0000   1.0000   1.0000   1.0000   1.0000   1.0280   1.0280
    -0.0000  -0.0000  -0.0000  -0.0000  -0.0000  -0.0000  -0.0000  -0.0000
    -0.0000  -0.0000  -0.0000  -0.0000  -0.0000  -0.0000

          k =-0.2500 0.2500-0.2500 (  1733 PWs)   bands (ev):

     4.8604   8.0616   8.0616   8.2037   8.5755   8.5755   9.6056   9.6056
     9.8529  10.7100  10.7912  10.7912  11.5114  11.5114  12.1946  12.1946
    15.7850  20.0958  20.0958  21.6409  22.6991  22.6991  23.5021  25.6590
    26.6240  26.6240  30.4202  32.9121  32.9121  35.6998

     occupation numbers 
     1.0000   1.0000   1.0000   1.0000   1.0000   1.0000   1.0000   1.0000
     1.0000   1.0000   1.0000   1.0000   1.0000   1.0000   1.0170   1.0170
    -0.0000  -0.0000  -0.0000  -0.0000  -0.0000  -0.0000  -0.0000  -0.0000
    -0.0000  -0.0000  -0.0000  -0.0000  -0.0000  -0.0000

          k =-0.3750 0.3750-0.3750 (  1721 PWs)   bands (ev):

     5.9211   8.2083   8.3385   8.3385   8.7596   8.7596   9.4260   9.5694
     9.5694  10.3438  10.3438  10.3917  11.5482  11.5482  12.1286  12.1286
    13.6933  19.8428  19.8428  21.2267  22.3055  22.3055  23.4664  27.9770
    28.0358  28.0358  33.2131  33.2131  33.9211  35.6905

     occupation numbers 
     1.0000   1.0000   1.0000   1.0000   1.0000   1.0000   1.0000   1.0000
     1.0000   1.0000   1.0000   1.0000   1.0000   1.0000   1.0004   1.0004
    -0.0000  -0.0000  -0.0000  -0.0000  -0.0000  -0.0000  -0.0000  -0.0000
    -0.0000  -0.0000  -0.0000  -0.0000  -0.0000  -0.0000

          k = 0.5000-0.5000 0.5000 (  1718 PWs)   bands (ev):

     6.6477   8.1544   8.4900   8.4900   8.8347   8.8347   8.9613   9.5781
     9.5781  10.1055  10.1055  10.3877  11.5775  11.5775  12.0844  12.0844
    12.8578  19.7118  19.7118  21.0840  22.1843  22.1843  23.4427  29.1361
    29.1361  30.1574  31.9645  31.9645  32.3217  36.8190

     occupation numbers 
     1.0000   1.0000   1.0000   1.0000   1.0000   1.0000   1.0000   1.0000
     1.0000   1.0000   1.0000   1.0000   1.0000   1.0000   1.0000   1.0000
    -0.0000  -0.0000  -0.0000  -0.0000  -0.0000  -0.0000  -0.0000  -0.0000
    -0.0000  -0.0000  -0.0000  -0.0000  -0.0000  -0.0000

          k = 0.0000 0.2500 0.0000 (  1740 PWs)   bands (ev):

     4.2065   7.8384   7.8930   8.2263   8.4286   8.4286   9.5530   9.7726
     9.7726  11.0074  11.2439  11.4563  11.4563  11.4641  12.1110  12.2646
    19.1855  19.1855  19.5933  21.5402  22.4506  23.9724  23.9724  24.9465
    25.9440  26.9061  26.9061  30.5933  31.1316  34.0008

     occupation numbers 
     1.0000   1.0000   1.0000   1.0000   1.0000   1.0000   1.0000   1.0000
     1.0000   1.0000   1.0000   1.0000   1.0000   1.0000   1.0001   0.9619
    -0.0000  -0.0000  -0.0000  -0.0000  -0.0000  -0.0000  -0.0000  -0.0000
    -0.0000  -0.0000  -0.0000  -0.0000  -0.0000  -0.0000

          k =-0.1250 0.3750-0.1250 (  1731 PWs)   bands (ev):

     4.7788   7.9046   8.0669   8.1726   8.5706   8.6075   9.3662   9.8264
     9.8753  10.7569  11.0063  11.0541  11.4405  11.5056  12.0400  12.2782
    16.7213  18.4578  19.9345  20.5693  22.5333  24.1351  24.2395  25.6966
    26.9528  27.8409  29.3926  31.1904  32.2511  36.4629

     occupation numbers 
     1.0000   1.0000   1.0000   1.0000   1.0000   1.0000   1.0000   1.0000
     1.0000   1.0000   1.0000   1.0000   1.0000   1.0000   1.0000   0.8735
    -0.0000  -0.0000  -0.0000  -0.0000  -0.0000  -0.0000  -0.0000  -0.0000
    -0.0000  -0.0000  -0.0000  -0.0000  -0.0000  -0.0000

          k =-0.2500 0.5000-0.2500 (  1723 PWs)   bands (ev):

     5.7331   7.9704   8.2081   8.3210   8.7386   8.8762   9.2316   9.7969
     9.8160  10.4289  10.5309  10.6411  11.5057  11.5311  12.0064  12.2392
    14.3217  18.1864  18.9300  20.6778  23.2044  24.0073  24.7192  25.5199
    28.8878  28.9289  31.9899  32.6658  34.1081  34.9797

     occupation numbers 
     1.0000   1.0000   1.0000   1.0000   1.0000   1.0000   1.0000   1.0000
     1.0000   1.0000   1.0000   1.0000   1.0000   1.0000   1.0000   1.0316
    -0.0000  -0.0000  -0.0000  -0.0000  -0.0000  -0.0000  -0.0000  -0.0000
    -0.0000  -0.0000  -0.0000  -0.0000  -0.0000  -0.0000

          k = 0.6250-0.3750 0.6250 (  1729 PWs)   bands (ev):

     6.6941   7.8576   8.3249   8.4987   8.8607   8.8965   9.3672   9.5712
     9.7259  10.0982  10.2135  10.5033  11.5149  11.5919  12.0928  12.1157
    12.9229  18.0578  18.4447  20.7447  23.3271  23.5716  25.0873  27.0365
    29.3305  30.2561  31.7878  32.1495  34.7081  35.6743

     occupation numbers 
     1.0000   1.0000   1.0000   1.0000   1.0000   1.0000   1.0000   1.0000
     1.0000   1.0000   1.0000   1.0000   1.0000   1.0000   1.0000   1.0002
    -0.0000  -0.0000  -0.0000  -0.0000  -0.0000  -0.0000  -0.0000  -0.0000
    -0.0000  -0.0000  -0.0000  -0.0000  -0.0000  -0.0000

          k = 0.5000-0.2500 0.5000 (  1734 PWs)   bands (ev):

     6.4235   7.9707   8.3283   8.4331   8.9033   8.9364   9.2594   9.4791
     9.7820  10.1489  10.2648  10.5306  11.4922  11.6164  11.9728  12.2344
    13.2757  17.5713  19.2442  20.9520  23.1152  23.2620  25.2420  27.5704
    27.6210  29.8081  32.2294  33.6583  33.7686  35.5324

     occupation numbers 
     1.0000   1.0000   1.0000   1.0000   1.0000   1.0000   1.0000   1.0000
     1.0000   1.0000   1.0000   1.0000   1.0000   1.0000   1.0000   1.0345
    -0.0000  -0.0000  -0.0000  -0.0000  -0.0000  -0.0000  -0.0000  -0.0000
    -0.0000  -0.0000  -0.0000  -0.0000  -0.0000  -0.0000

          k = 0.3750-0.1250 0.3750 (  1732 PWs)   bands (ev):

     5.3874   8.0781   8.1530   8.1882   8.7447   8.7891   9.4132   9.5795
     9.8524  10.5203  10.5482  10.7757  11.4916  11.5504  11.9625  12.3134
    15.1164  17.5373  20.4731  21.4347  22.5502  23.1381  24.8312  25.9363
    26.2333  29.7325  31.1348  32.2505  33.8649  34.9708

     occupation numbers 
     1.0000   1.0000   1.0000   1.0000   1.0000   1.0000   1.0000   1.0000
     1.0000   1.0000   1.0000   1.0000   1.0000   1.0000   1.0000   0.4906
    -0.0000  -0.0000  -0.0000  -0.0000  -0.0000  -0.0000  -0.0000  -0.0000
    -0.0000  -0.0000  -0.0000  -0.0000  -0.0000  -0.0000

          k = 0.2500 0.0000 0.2500 (  1747 PWs)   bands (ev):

     4.5391   7.9589   7.9644   8.1723   8.5097   8.5490   9.5234   9.7462
     9.8086  10.8994  10.9215  11.1551  11.4786  11.5146  12.0775  12.2993
    17.4227  18.1806  21.3496  22.1427  22.2663  22.7423  23.9015  25.2879
    25.3916  28.1159  28.5560  30.7386  33.0354  34.6228

     occupation numbers 
     1.0000   1.0000   1.0000   1.0000   1.0000   1.0000   1.0000   1.0000
     1.0000   1.0000   1.0000   1.0000   1.0000   1.0000   1.0000   0.6626
    -0.0000  -0.0000  -0.0000  -0.0000  -0.0000  -0.0000  -0.0000  -0.0000
    -0.0000  -0.0000  -0.0000  -0.0000  -0.0000  -0.0000

          k = 0.0000 0.5000 0.0000 (  1716 PWs)   bands (ev):

     5.1554   7.7501   8.1437   8.2005   8.6685   8.6685   9.1201   9.9976
     9.9976  10.7292  11.1543  11.2949  11.2949  11.3935  11.8967  12.2570
    17.1630  17.1630  18.1937  19.0512  22.0191  25.5157  25.5157  28.1522
    28.5638  29.2854  29.2854  30.2243  31.2146  36.3494

     occupation numbers 
     1.0000   1.0000   1.0000   1.0000   1.0000   1.0000   1.0000   1.0000
     1.0000   1.0000   1.0000   1.0000   1.0000   1.0000   1.0000   0.9946
    -0.0000  -0.0000  -0.0000  -0.0000  -0.0000  -0.0000  -0.0000  -0.0000
    -0.0000  -0.0000  -0.0000  -0.0000  -0.0000  -0.0000

          k =-0.1250 0.6250-0.1250 (  1722 PWs)   bands (ev):

     5.9063   7.6922   8.0234   8.4101   8.8041   8.8334   9.0741  10.0297
    10.0523  10.6580  10.8507  11.0604  11.3906  11.5129  11.8844  12.2565
    15.0601  16.4813  16.8684  19.7127  22.4185  25.8747  26.0349  28.3701
    30.0414  30.1782  30.8231  31.4536  33.1156  35.0514

     occupation numbers 
     1.0000   1.0000   1.0000   1.0000   1.0000   1.0000   1.0000   1.0000
     1.0000   1.0000   1.0000   1.0000   1.0000   1.0000   1.0000   0.9963
    -0.0000  -0.0000  -0.0000  -0.0000  -0.0000  -0.0000  -0.0000  -0.0000
    -0.0000  -0.0000  -0.0000  -0.0000  -0.0000  -0.0000

          k = 0.7500-0.2500 0.7500 (  1722 PWs)   bands (ev):

     6.8027   7.6105   7.9913   8.5470   8.7413   9.0182   9.3849   9.9021
    10.1335  10.3503  10.4613  10.8883  11.3566  11.6592  12.1183  12.2313
    13.1317  15.8315  16.5992  20.2864  23.9024  25.6762  25.7954  28.1059
    29.7327  30.5479  31.5857  32.7174  34.4263  35.5144

     occupation numbers 
     1.0000   1.0000   1.0000   1.0000   1.0000   1.0000   1.0000   1.0000
     1.0000   1.0000   1.0000   1.0000   1.0000   1.0000   1.0002   1.0353
    -0.0000  -0.0000  -0.0000  -0.0000  -0.0000  -0.0000  -0.0000  -0.0000
    -0.0000  -0.0000  -0.0000  -0.0000  -0.0000  -0.0000

          k = 0.6250-0.1250 0.6250 (  1730 PWs)   bands (ev):

     7.0255   7.6492   8.1952   8.5336   8.5773   9.1932   9.5423   9.6822
     9.9488  10.1398  10.4628  10.6426  11.3685  11.5866  12.1273  12.3074
    13.0943  15.1541  17.4838  20.5802  24.8373  25.3756  26.2565  27.5197
    27.6248  29.2906  32.7487  33.4804  35.1990  35.9631

     occupation numbers 
     1.0000   1.0000   1.0000   1.0000   1.0000   1.0000   1.0000   1.0000
     1.0000   1.0000   1.0000   1.0000   1.0000   1.0000   1.0004   0.5656
    -0.0000  -0.0000  -0.0000  -0.0000  -0.0000  -0.0000  -0.0000  -0.0000
    -0.0000  -0.0000  -0.0000  -0.0000  -0.0000  -0.0000

          k = 0.5000 0.0000 0.5000 (  1742 PWs)   bands (ev):

     6.2282   7.9455   8.1615   8.3895   8.8912   9.0604   9.3494   9.4297
     9.9116  10.1898  10.4635  10.7186  11.4293  11.5924  11.8954  12.3620
    14.6696  15.1746  18.8983  20.9203  24.4348  24.5211  25.0659  25.9346
    28.4459  29.5686  31.4036  33.5788  34.2635  35.2689

     occupation numbers 
     1.0000   1.0000   1.0000   1.0000   1.0000   1.0000   1.0000   1.0000
     1.0000   1.0000   1.0000   1.0000   1.0000   1.0000   1.0000   0.0316
    -0.0000  -0.0000  -0.0000  -0.0000  -0.0000  -0.0000  -0.0000  -0.0000
    -0.0000  -0.0000  -0.0000  -0.0000  -0.0000  -0.0000

          k = 0.0000 0.7500 0.0000 (  1728 PWs)   bands (ev):

     6.3478   7.4970   7.9032   8.5810   8.8645   8.8645   9.0625  10.0988
    10.0988  10.7908  10.9720  11.2876  11.6575  11.6575  11.7008  12.2938
    15.0986  15.2439  15.2439  18.8632  21.8752  27.8195  27.8195  29.8209
    30.8566  31.1965  31.4826  31.4826  33.1059  34.7407

     occupation numbers 
     1.0000   1.0000   1.0000   1.0000   1.0000   1.0000   1.0000   1.0000
     1.0000   1.0000   1.0000   1.0000   1.0000   1.0000   1.0000   0.7253
    -0.0000  -0.0000  -0.0000  -0.0000  -0.0000  -0.0000  -0.0000  -0.0000
    -0.0000  -0.0000  -0.0000  -0.0000  -0.0000  -0.0000

          k = 0.8750-0.1250 0.8750 (  1722 PWs)   bands (ev):

     6.8595   7.4047   7.9530   8.6617   8.7556   9.0258   9.2470   9.9802
    10.2164  10.7644  10.8349  11.1883  11.3296  12.0297  12.1659  12.4482
    13.5318  14.2412  14.9859  19.4935  22.3089  28.0742  28.1038  29.8510
    30.2854  31.3496  31.9579  33.1082  33.9462  34.0693

     occupation numbers 
     1.0000   1.0000   1.0000   1.0000   1.0000   1.0000   1.0000   1.0000
     1.0000   1.0000   1.0000   1.0000   1.0000   1.0000   1.0047  -0.0082
    -0.0000  -0.0000  -0.0000  -0.0000  -0.0000  -0.0000  -0.0000  -0.0000
    -0.0000  -0.0000  -0.0000  -0.0000  -0.0000  -0.0000

          k = 0.7500 0.0000 0.7500 (  1730 PWs)   bands (ev):

     7.2443   7.4174   8.1609   8.3845   8.6093   9.2675   9.4379   9.7632
    10.3528  10.5420  10.6029  11.0234  11.2375  11.9251  12.3244  12.3296
    13.0610  13.6465  15.9106  20.1930  23.8583  27.5203  27.5552  27.7594
    28.0357  31.5833  32.5966  32.9750  34.6607  35.2628

     occupation numbers 
     1.0000   1.0000   1.0000   1.0000   1.0000   1.0000   1.0000   1.0000
     1.0000   1.0000   1.0000   1.0000   1.0000   1.0000   0.3558   0.2959
    -0.0000  -0.0000  -0.0000  -0.0000  -0.0000  -0.0000  -0.0000  -0.0000
    -0.0000  -0.0000  -0.0000  -0.0000  -0.0000  -0.0000

          k = 0.0000-1.0000 0.0000 (  1724 PWs)   bands (ev):

     6.8780   7.2586   8.0361   8.7766   8.9357   8.9357   9.1572  10.0610
    10.0610  10.8428  10.8895  11.1971  11.6346  12.2406  12.2406  12.6651
    13.3380  14.1797  14.1797  18.8361  21.8434  29.6458  29.8648  29.8648
    30.9943  31.8003  31.8003  33.1010  33.1010  33.1868

     occupation numbers 
     1.0000   1.0000   1.0000   1.0000   1.0000   1.0000   1.0000   1.0000
     1.0000   1.0000   1.0000   1.0000   1.0000   1.0302   1.0302  -0.0000
    -0.0000  -0.0000  -0.0000  -0.0000  -0.0000  -0.0000  -0.0000  -0.0000
    -0.0000  -0.0000  -0.0000  -0.0000  -0.0000  -0.0000

          k =-0.2500 0.5000 0.0000 (  1727 PWs)   bands (ev):

     5.4539   7.8740   8.1075   8.2880   8.7433   8.8098   9.1622   9.8473
     9.9473  10.6328  10.6893  10.9177  11.4559  11.5219  11.9037  12.3067
    15.8604  16.4510  18.7507  21.1107  22.7091  23.6424  25.7235  26.6769
    27.4948  30.2650  30.8817  31.1973  33.0303  35.0464

     occupation numbers 
     1.0000   1.0000   1.0000   1.0000   1.0000   1.0000   1.0000   1.0000
     1.0000   1.0000   1.0000   1.0000   1.0000   1.0000   1.0000   0.5743
    -0.0000  -0.0000  -0.0000  -0.0000  -0.0000  -0.0000  -0.0000  -0.0000
    -0.0000  -0.0000  -0.0000  -0.0000  -0.0000  -0.0000

          k = 0.6250-0.3750 0.8750 (  1732 PWs)   bands (ev):

     6.3921   7.8381   8.0484   8.5116   8.8743   8.9184   9.3127   9.7168
     9.9933  10.2490  10.4489  10.7482  11.4048  11.6294  11.9524  12.2991
    13.8534  16.0712  17.5587  21.6524  22.9486  24.3492  26.0768  27.2817
    28.6703  29.8553  31.9250  33.0005  34.3300  34.8946

     occupation numbers 
     1.0000   1.0000   1.0000   1.0000   1.0000   1.0000   1.0000   1.0000
     1.0000   1.0000   1.0000   1.0000   1.0000   1.0000   1.0000   0.6646
    -0.0000  -0.0000  -0.0000  -0.0000  -0.0000  -0.0000  -0.0000  -0.0000
    -0.0000  -0.0000  -0.0000  -0.0000  -0.0000  -0.0000

          k = 0.5000-0.2500 0.7500 (  1730 PWs)   bands (ev):

     7.0644   7.5812   8.1486   8.5178   8.8564   8.9865   9.5824   9.6261
     9.9453  10.0794  10.4019  10.6284  11.3759  11.7276  12.0827  12.2461
    12.7847  16.2819  16.8775  21.6634  22.8891  25.8425  26.1865  27.1935
    27.9882  30.3967  31.5196  34.6927  34.8888  35.1863

     occupation numbers 
     1.0000   1.0000   1.0000   1.0000   1.0000   1.0000   1.0000   1.0000
     1.0000   1.0000   1.0000   1.0000   1.0000   1.0000   1.0000   1.0228
    -0.0000  -0.0000  -0.0000  -0.0000  -0.0000  -0.0000  -0.0000  -0.0000
    -0.0000  -0.0000  -0.0000  -0.0000  -0.0000  -0.0000

          k = 0.7500-0.2500 1.0000 (  1723 PWs)   bands (ev):

     6.5894   7.6255   7.8713   8.5605   8.8002   8.9911   9.2198   9.9844
    10.1474  10.6022  10.7219  10.9748  11.3264  11.7304  12.0318  12.3133
    14.4005  14.7984  15.6850  20.4985  22.6502  25.3767  28.0036  29.2587
    30.0110  30.2493  31.3732  33.0683  33.9278  34.8105

     occupation numbers 
     1.0000   1.0000   1.0000   1.0000   1.0000   1.0000   1.0000   1.0000
     1.0000   1.0000   1.0000   1.0000   1.0000   1.0000   1.0000   0.4916
    -0.0000  -0.0000  -0.0000  -0.0000  -0.0000  -0.0000  -0.0000  -0.0000
    -0.0000  -0.0000  -0.0000  -0.0000  -0.0000  -0.0000

          k = 0.6250-0.1250 0.8750 (  1719 PWs)   bands (ev):

     7.1943   7.5304   7.9811   8.3846   8.8231   9.2129   9.4192   9.8363
    10.1213  10.4486  10.5655  10.9203  11.2678  12.0443  12.3118  12.4224
    12.8794  14.4260  15.2530  21.4355  23.9156  24.8626  26.9617  28.4693
    30.4160  30.7675  31.8429  33.5077  34.3316  34.7116

     occupation numbers 
     1.0000   1.0000   1.0000   1.0000   1.0000   1.0000   1.0000   1.0000
     1.0000   1.0000   1.0000   1.0000   1.0000   1.0000   0.5111  -0.0224
    -0.0000  -0.0000  -0.0000  -0.0000  -0.0000  -0.0000  -0.0000  -0.0000
    -0.0000  -0.0000  -0.0000  -0.0000  -0.0000  -0.0000

          k = 0.5000 0.0000 0.7500 (  1725 PWs)   bands (ev):

     7.0749   7.6641   8.0051   8.4054   8.8724   9.1873   9.4644   9.6854
     9.9479  10.3967  10.5030  10.7804  11.2942  11.7405  12.1678  12.3668
    13.7238  14.0432  16.2194  21.9599  23.8340  24.7793  26.5458  27.9003
    28.9510  30.8402  31.2991  33.9210  34.3784  36.0106

     occupation numbers 
     1.0000   1.0000   1.0000   1.0000   1.0000   1.0000   1.0000   1.0000
     1.0000   1.0000   1.0000   1.0000   1.0000   1.0000   1.0051   0.0110
    -0.0000  -0.0000  -0.0000  -0.0000  -0.0000  -0.0000  -0.0000  -0.0000
    -0.0000  -0.0000  -0.0000  -0.0000  -0.0000  -0.0000

          k =-0.2500-1.0000 0.0000 (  1722 PWs)   bands (ev):

     7.0662   7.4059   8.0580   8.4952   8.7333   9.1870   9.2994   9.9695
    10.2917  10.7347  10.8083  10.9130  11.2576  12.2785  12.3657  12.7581
    13.2079  13.8261  14.1699  20.3293  22.6054  27.3756  27.4845  30.3627
    30.4223  31.4134  32.4424  32.8023  34.0173  34.6640

     occupation numbers 
     1.0000   1.0000   1.0000   1.0000   1.0000   1.0000   1.0000   1.0000
     1.0000   1.0000   1.0000   1.0000   1.0000   0.8710   0.0155  -0.0000
    -0.0000  -0.0000  -0.0000  -0.0000  -0.0000  -0.0000  -0.0000  -0.0000
    -0.0000  -0.0000  -0.0000  -0.0000  -0.0000  -0.0000

          k =-0.5000-1.0000 0.0000 (  1744 PWs)   bands (ev):

     7.2608   7.6977   8.0360   8.0867   9.0905   9.2601   9.3729   9.8727
     9.8896  10.4527  10.5938  11.0033  11.2629  12.2878  12.4701  13.1277
    13.1422  13.1914  14.1641  23.5161  23.6131  24.1646  25.1696  30.5092
    30.8872  31.3258  32.8523  32.9242  33.1418  33.7725

     occupation numbers 
     1.0000   1.0000   1.0000   1.0000   1.0000   1.0000   1.0000   1.0000
     1.0000   1.0000   1.0000   1.0000   1.0000   0.7873  -0.0025  -0.0000
    -0.0000  -0.0000  -0.0000  -0.0000  -0.0000  -0.0000  -0.0000  -0.0000
    -0.0000  -0.0000  -0.0000  -0.0000  -0.0000  -0.0000

     the Fermi energy is    12.3127 ev

!    total energy              =   -1146.02925774 Ry

     total all-electron energy =    -43178.988637 Ry
     estimated scf accuracy    <       0.00000001 Ry
     smearing contrib. (-TS)   =      -0.00042190 Ry
     internal energy E=F+TS    =   -1146.02883584 Ry

     The total energy is F=E-TS. E is the sum of the following terms:
     one-electron contribution =     -48.61837907 Ry
     hartree contribution      =      67.56346443 Ry
     xc contribution           =    -110.26673071 Ry
     ewald contribution        =    -195.07572077 Ry
     one-center paw contrib.   =    -859.63146971 Ry
      -> PAW hartree energy AE =     234.88291019 Ry
      -> PAW hartree energy PS =    -233.82347923 Ry
      -> PAW xc energy AE      =    -971.05690674 Ry
      -> PAW xc energy PS      =     110.36600607 Ry
      -> total E_H with PAW    =      68.62289538 Ry
      -> total E_XC with PAW   =    -970.95763138 Ry

     convergence has been achieved in  11 iterations

     Writing output data file ././CuPtNi.save/

     init_run     :      2.77s CPU      2.24s WALL (       1 calls)
     electrons    :     68.89s CPU     41.72s WALL (       1 calls)

     Called by init_run:
     wfcinit      :      1.59s CPU      0.99s WALL (       1 calls)
     wfcinit:atom :      0.03s CPU      0.01s WALL (      29 calls)
     wfcinit:wfcr :      1.49s CPU      0.94s WALL (      29 calls)
     potinit      :      0.34s CPU      0.38s WALL (       1 calls)
     hinit0       :      0.72s CPU      0.72s WALL (       1 calls)

     Called by electrons:
     c_bands      :     52.20s CPU     30.01s WALL (      11 calls)
     sum_band     :     11.13s CPU      6.68s WALL (      11 calls)
     v_of_rho     :      0.34s CPU      0.25s WALL (      12 calls)
     v_h          :      0.02s CPU      0.01s WALL (      12 calls)
     v_xc         :      0.32s CPU      0.24s WALL (      12 calls)
     newd         :      1.08s CPU      0.89s WALL (      12 calls)
     PAW_pot      :      4.51s CPU      4.29s WALL (      12 calls)
     mix_rho      :      0.04s CPU      0.03s WALL (      11 calls)

     Called by c_bands:
     init_us_2    :      1.10s CPU      0.54s WALL (     667 calls)
     cegterg      :     48.24s CPU     27.80s WALL (     319 calls)

     Called by sum_band:
     sum_band:wei :      0.03s CPU      0.01s WALL (      11 calls)
     sum_band:loo :      9.10s CPU      5.62s WALL (      11 calls)
     sum_band:buf :      0.06s CPU      0.03s WALL (     319 calls)
     sum_band:ini :      0.46s CPU      0.26s WALL (     319 calls)
     sum_band:cal :      0.28s CPU      0.23s WALL (     319 calls)
     sum_band:bec :      0.03s CPU      0.03s WALL (     319 calls)
     addusdens    :      1.95s CPU      1.02s WALL (      11 calls)
     addusd:skk   :      0.00s CPU      0.00s WALL (      33 calls)
     addusd:dgemm :      1.00s CPU      0.41s WALL (      33 calls)
     addusd:qvan2 :      0.80s CPU      0.48s WALL (      33 calls)

     Called by *egterg:
     cdiaghg      :      2.71s CPU      1.24s WALL (    1310 calls)
     cegterg:over :      1.00s CPU      0.43s WALL (     991 calls)
     cegterg:upda :      0.82s CPU      0.33s WALL (     991 calls)
     cegterg:last :      1.37s CPU      0.53s WALL (     650 calls)
     h_psi        :     42.13s CPU     25.48s WALL (    1339 calls)
     s_psi        :      0.62s CPU      0.30s WALL (    1339 calls)
     g_psi        :      0.40s CPU      0.15s WALL (     991 calls)

     Called by h_psi:
     h_psi:calbec :      0.71s CPU      0.46s WALL (    1339 calls)
     vloc_psi     :     40.53s CPU     24.56s WALL (    1339 calls)
     add_vuspsi   :      0.64s CPU      0.35s WALL (    1339 calls)

     General routines
     calbec       :      0.98s CPU      0.68s WALL (    1658 calls)
     fft          :      0.15s CPU      0.20s WALL (     132 calls)
     ffts         :      0.02s CPU      0.01s WALL (      11 calls)
     fftw         :     42.27s CPU     25.64s WALL (   59670 calls)

     Parallel routines

     PAW routines
     PAW_pot      :      4.51s CPU      4.29s WALL (      12 calls)
     PAW_symme    :      0.01s CPU      0.01s WALL (      23 calls)

     PWSCF        :   1m11.90s CPU     44.49s WALL


   This run was terminated on:  12:57:49  22May2024            

=------------------------------------------------------------------------------=
   JOB DONE.
=------------------------------------------------------------------------------=
