
     Program PWSCF v.6.7MaX starts on 22May2024 at 13:11: 1 

     This program is part of the open-source Quantum ESPRESSO suite
     for quantum simulation of materials; please cite
         "P. Giannozzi et al., J. Phys.:Condens. Matter 21 395502 (2009);
         "P. Giannozzi et al., J. Phys.:Condens. Matter 29 465901 (2017);
          URL http://www.quantum-espresso.org", 
     in publications or presentations arising from this work. More details at
     http://www.quantum-espresso.org/quote

     Parallel version (MPI), running on     1 processors

     MPI processes distributed on     1 nodes
     Waiting for input...
     Reading input from standard input

     Current dimensions of program PWSCF are:
     Max number of different atomic species (ntypx) = 10
     Max number of k-points (npk) =  40000
     Max angular momentum in pseudopotentials (lmaxx) =  3
     file Cu.UPF: wavefunction(s)  4S 3D renormalized
     file Pt.UPF: wavefunction(s)  6S 5D renormalized
     file Ni.UPF: wavefunction(s)  4S 3D renormalized

     Subspace diagonalization in iterative solution of the eigenvalue problem:
     a serial algorithm will be used


     G-vector sticks info
     --------------------
     sticks:   dense  smooth     PW     G-vecs:    dense   smooth      PW
     Sum        1003    1003    301                20539    20539    3383



     bravais-lattice index     =            2
     lattice parameter (alat)  =      12.0000  a.u.
     unit-cell volume          =     432.0000 (a.u.)^3
     number of atoms/cell      =            3
     number of atomic types    =            3
     number of electrons       =        31.00
     number of Kohn-Sham states=           30
     kinetic-energy cutoff     =      50.0000  Ry
     charge density cutoff     =     200.0000  Ry
     scf convergence threshold =      1.0E-07
     mixing beta               =       0.7000
     number of iterations used =            8  plain     mixing
     Exchange-correlation= SLA  PW   PBX  PBC
                           (   1   4   3   4   0   0   0)

     celldm(1)=  12.000000  celldm(2)=   0.000000  celldm(3)=   0.000000
     celldm(4)=   0.000000  celldm(5)=   0.000000  celldm(6)=   0.000000

     crystal axes: (cart. coord. in units of alat)
               a(1) = (  -0.500000   0.000000   0.500000 )  
               a(2) = (   0.000000   0.500000   0.500000 )  
               a(3) = (  -0.500000   0.500000   0.000000 )  

     reciprocal axes: (cart. coord. in units 2 pi/alat)
               b(1) = ( -1.000000 -1.000000  1.000000 )  
               b(2) = (  1.000000  1.000000  1.000000 )  
               b(3) = ( -1.000000  1.000000 -1.000000 )  


     PseudoPot. # 1 for Cu read from file:
     ././Cu.UPF
     MD5 check sum: cfffd1f38ee05704b3e17f46f1730a6f
     Pseudo is Projector augmented-wave + core cor, Zval = 11.0
     Generated using &quot;atomic&quot; code by A. Dal Corso  v.6.3
     Shape of augmentation charge: PSQ
     Using radial grid of 1199 points,  6 beta functions with: 
                l(1) =   0
                l(2) =   0
                l(3) =   1
                l(4) =   1
                l(5) =   2
                l(6) =   2
     Q(r) pseudized with 0 coefficients 


     PseudoPot. # 2 for Pt read from file:
     ././Pt.UPF
     MD5 check sum: c5224e9cd7a5e36e81f2def9f50bb494
     Pseudo is Projector augmented-wave + core cor, Zval = 10.0
     Generated using &quot;atomic&quot; code by A. Dal Corso  v.6.3
     Shape of augmentation charge: PSQ
     Using radial grid of 1277 points,  6 beta functions with: 
                l(1) =   0
                l(2) =   0
                l(3) =   1
                l(4) =   1
                l(5) =   2
                l(6) =   2
     Q(r) pseudized with 0 coefficients 


     PseudoPot. # 3 for Ni read from file:
     ././Ni.UPF
     MD5 check sum: 5bc40517020091042a126ac2b4ecef1e
     Pseudo is Projector augmented-wave + core cor, Zval = 10.0
     Generated using "atomic" code by A. Dal Corso  v.5.0.2 svn rev. 9415
     Shape of augmentation charge: PSQ
     Using radial grid of 1195 points,  6 beta functions with: 
                l(1) =   0
                l(2) =   0
                l(3) =   1
                l(4) =   1
                l(5) =   2
                l(6) =   2
     Q(r) pseudized with 0 coefficients 


     atomic species   valence    mass     pseudopotential
        Cu            11.00    63.54600     Cu( 1.00)
        Pt            10.00   195.08000     Pt( 1.00)
        Ni            10.00    58.69000     Ni( 1.00)

     24 Sym. Ops. (no inversion) found


                                    s                        frac. trans.

      isym =  1     identity                                     

 cryst.   s( 1) = (     1          0          0      )
                  (     0          1          0      )
                  (     0          0          1      )

 cart.    s( 1) = (  1.0000000  0.0000000  0.0000000 )
                  (  0.0000000  1.0000000  0.0000000 )
                  (  0.0000000  0.0000000  1.0000000 )


      isym =  2     180 deg rotation - cart. axis [0,0,1]        

 cryst.   s( 2) = (     0          1         -1      )
                  (     1          0         -1      )
                  (     0          0         -1      )

 cart.    s( 2) = ( -1.0000000  0.0000000  0.0000000 )
                  (  0.0000000 -1.0000000  0.0000000 )
                  (  0.0000000  0.0000000  1.0000000 )


      isym =  3     180 deg rotation - cart. axis [0,1,0]        

 cryst.   s( 3) = (    -1          0          0      )
                  (    -1          0          1      )
                  (    -1          1          0      )

 cart.    s( 3) = ( -1.0000000  0.0000000  0.0000000 )
                  (  0.0000000  1.0000000  0.0000000 )
                  (  0.0000000  0.0000000 -1.0000000 )


      isym =  4     180 deg rotation - cart. axis [1,0,0]        

 cryst.   s( 4) = (     0         -1          1      )
                  (     0         -1          0      )
                  (     1         -1          0      )

 cart.    s( 4) = (  1.0000000  0.0000000  0.0000000 )
                  (  0.0000000 -1.0000000  0.0000000 )
                  (  0.0000000  0.0000000 -1.0000000 )


      isym =  5     120 deg rotation - cart. axis [-1,-1,-1]     

 cryst.   s( 5) = (    -1          0          1      )
                  (    -1          1          0      )
                  (    -1          0          0      )

 cart.    s( 5) = (  0.0000000  1.0000000  0.0000000 )
                  (  0.0000000  0.0000000  1.0000000 )
                  (  1.0000000  0.0000000  0.0000000 )


      isym =  6     120 deg rotation - cart. axis [-1,1,1]       

 cryst.   s( 6) = (     0          1          0      )
                  (     0          0          1      )
                  (     1          0          0      )

 cart.    s( 6) = (  0.0000000 -1.0000000  0.0000000 )
                  (  0.0000000  0.0000000  1.0000000 )
                  ( -1.0000000  0.0000000  0.0000000 )


      isym =  7     120 deg rotation - cart. axis [1,1,-1]       

 cryst.   s( 7) = (     1          0         -1      )
                  (     0          0         -1      )
                  (     0          1         -1      )

 cart.    s( 7) = (  0.0000000  1.0000000  0.0000000 )
                  (  0.0000000  0.0000000 -1.0000000 )
                  ( -1.0000000  0.0000000  0.0000000 )


      isym =  8     120 deg rotation - cart. axis [1,-1,1]       

 cryst.   s( 8) = (     0         -1          0      )
                  (     1         -1          0      )
                  (     0         -1          1      )

 cart.    s( 8) = (  0.0000000 -1.0000000  0.0000000 )
                  (  0.0000000  0.0000000 -1.0000000 )
                  (  1.0000000  0.0000000  0.0000000 )


      isym =  9     120 deg rotation - cart. axis [1,1,1]        

 cryst.   s( 9) = (     0          0         -1      )
                  (     0          1         -1      )
                  (     1          0         -1      )

 cart.    s( 9) = (  0.0000000  0.0000000  1.0000000 )
                  (  1.0000000  0.0000000  0.0000000 )
                  (  0.0000000  1.0000000  0.0000000 )


      isym = 10     120 deg rotation - cart. axis [-1,1,-1]      

 cryst.   s(10) = (    -1          1          0      )
                  (    -1          0          0      )
                  (    -1          0          1      )

 cart.    s(10) = (  0.0000000  0.0000000  1.0000000 )
                  ( -1.0000000  0.0000000  0.0000000 )
                  (  0.0000000 -1.0000000  0.0000000 )


      isym = 11     120 deg rotation - cart. axis [1,-1,-1]      

 cryst.   s(11) = (     0          0          1      )
                  (     1          0          0      )
                  (     0          1          0      )

 cart.    s(11) = (  0.0000000  0.0000000 -1.0000000 )
                  ( -1.0000000  0.0000000  0.0000000 )
                  (  0.0000000  1.0000000  0.0000000 )


      isym = 12     120 deg rotation - cart. axis [-1,-1,1]      

 cryst.   s(12) = (     1         -1          0      )
                  (     0         -1          1      )
                  (     0         -1          0      )

 cart.    s(12) = (  0.0000000  0.0000000 -1.0000000 )
                  (  1.0000000  0.0000000  0.0000000 )
                  (  0.0000000 -1.0000000  0.0000000 )


      isym = 13     inv. 180 deg rotation - cart. axis [1,1,0]   

 cryst.   s(13) = (     0          1          0      )
                  (     1          0          0      )
                  (     0          0          1      )

 cart.    s(13) = (  0.0000000 -1.0000000  0.0000000 )
                  ( -1.0000000  0.0000000  0.0000000 )
                  (  0.0000000  0.0000000  1.0000000 )


      isym = 14     inv. 180 deg rotation - cart. axis [1,-1,0]  

 cryst.   s(14) = (     1          0         -1      )
                  (     0          1         -1      )
                  (     0          0         -1      )

 cart.    s(14) = (  0.0000000  1.0000000  0.0000000 )
                  (  1.0000000  0.0000000  0.0000000 )
                  (  0.0000000  0.0000000  1.0000000 )


      isym = 15     inv.  90 deg rotation - cart. axis [0,0,-1]  

 cryst.   s(15) = (     0         -1          0      )
                  (     0         -1          1      )
                  (     1         -1          0      )

 cart.    s(15) = (  0.0000000 -1.0000000  0.0000000 )
                  (  1.0000000  0.0000000  0.0000000 )
                  (  0.0000000  0.0000000 -1.0000000 )


      isym = 16     inv.  90 deg rotation - cart. axis [0,0,1]   

 cryst.   s(16) = (    -1          0          1      )
                  (    -1          0          0      )
                  (    -1          1          0      )

 cart.    s(16) = (  0.0000000  1.0000000  0.0000000 )
                  ( -1.0000000  0.0000000  0.0000000 )
                  (  0.0000000  0.0000000 -1.0000000 )


      isym = 17     inv. 180 deg rotation - cart. axis [1,0,1]   

 cryst.   s(17) = (     1          0          0      )
                  (     0          0          1      )
                  (     0          1          0      )

 cart.    s(17) = (  0.0000000  0.0000000 -1.0000000 )
                  (  0.0000000  1.0000000  0.0000000 )
                  ( -1.0000000  0.0000000  0.0000000 )


      isym = 18     inv. 180 deg rotation - cart. axis [-1,0,1]  

 cryst.   s(18) = (    -1          0          0      )
                  (    -1          1          0      )
                  (    -1          0          1      )

 cart.    s(18) = (  0.0000000  0.0000000  1.0000000 )
                  (  0.0000000  1.0000000  0.0000000 )
                  (  1.0000000  0.0000000  0.0000000 )


      isym = 19     inv.  90 deg rotation - cart. axis [0,1,0]   

 cryst.   s(19) = (     0         -1          1      )
                  (     1         -1          0      )
                  (     0         -1          0      )

 cart.    s(19) = (  0.0000000  0.0000000 -1.0000000 )
                  (  0.0000000 -1.0000000  0.0000000 )
                  (  1.0000000  0.0000000  0.0000000 )


      isym = 20     inv.  90 deg rotation - cart. axis [0,-1,0]  

 cryst.   s(20) = (     0          1         -1      )
                  (     0          0         -1      )
                  (     1          0         -1      )

 cart.    s(20) = (  0.0000000  0.0000000  1.0000000 )
                  (  0.0000000 -1.0000000  0.0000000 )
                  ( -1.0000000  0.0000000  0.0000000 )


      isym = 21     inv. 180 deg rotation - cart. axis [0,1,1]   

 cryst.   s(21) = (     1         -1          0      )
                  (     0         -1          0      )
                  (     0         -1          1      )

 cart.    s(21) = (  1.0000000  0.0000000  0.0000000 )
                  (  0.0000000  0.0000000 -1.0000000 )
                  (  0.0000000 -1.0000000  0.0000000 )


      isym = 22     inv. 180 deg rotation - cart. axis [0,1,-1]  

 cryst.   s(22) = (     0          0          1      )
                  (     0          1          0      )
                  (     1          0          0      )

 cart.    s(22) = (  1.0000000  0.0000000  0.0000000 )
                  (  0.0000000  0.0000000  1.0000000 )
                  (  0.0000000  1.0000000  0.0000000 )


      isym = 23     inv.  90 deg rotation - cart. axis [-1,0,0]  

 cryst.   s(23) = (     0          0         -1      )
                  (     1          0         -1      )
                  (     0          1         -1      )

 cart.    s(23) = ( -1.0000000  0.0000000  0.0000000 )
                  (  0.0000000  0.0000000 -1.0000000 )
                  (  0.0000000  1.0000000  0.0000000 )


      isym = 24     inv.  90 deg rotation - cart. axis [1,0,0]   

 cryst.   s(24) = (    -1          1          0      )
                  (    -1          0          1      )
                  (    -1          0          0      )

 cart.    s(24) = ( -1.0000000  0.0000000  0.0000000 )
                  (  0.0000000  0.0000000  1.0000000 )
                  (  0.0000000 -1.0000000  0.0000000 )


     point group T_d (-43m) 
     there are  5 classes
     the character table:

       E     8C3   3C2   6S4   6s_d 
A_1    1.00  1.00  1.00  1.00  1.00
A_2    1.00  1.00  1.00 -1.00 -1.00
E      2.00 -1.00  2.00  0.00  0.00
T_1    3.00  0.00 -1.00  1.00 -1.00
T_2    3.00  0.00 -1.00 -1.00  1.00

     the symmetry operations in each class and the name of the first element:

     E        1
          identity                                               
     8C3      5    7    8    6   12    9   10   11
          120 deg rotation - cart. axis [-1,-1,-1]               
     3C2      2    3    4
          180 deg rotation - cart. axis [0,0,1]                  
     6S4     15   16   20   19   23   24
          inv.  90 deg rotation - cart. axis [0,0,-1]            
     6s_d    13   14   17   18   21   22
          inv. 180 deg rotation - cart. axis [1,1,0]             

   Cartesian axes

     site n.     atom                  positions (alat units)
         1           Cu  tau(   1) = (   0.0000000   0.0000000   0.0000000  )
         2           Pt  tau(   2) = (   0.5000000   0.5000000   0.5000000  )
         3           Ni  tau(   3) = (   0.2500000   0.2500000   0.2500000  )

   Crystallographic axes

     site n.     atom                  positions (cryst. coord.)
         1           Cu  tau(   1) = (  0.0000000  0.0000000  0.0000000  )
         2           Pt  tau(   2) = ( -0.5000000  1.5000000 -0.5000000  )
         3           Ni  tau(   3) = ( -0.2500000  0.7500000 -0.2500000  )

     number of k points=    29  Methfessel-Paxton smearing, width (Ry)=  0.0050
                       cart. coord. in units 2pi/alat
        k(    1) = (   0.0000000   0.0000000   0.0000000), wk =   0.0039062
        k(    2) = (  -0.1250000   0.1250000  -0.1250000), wk =   0.0312500
        k(    3) = (  -0.2500000   0.2500000  -0.2500000), wk =   0.0312500
        k(    4) = (  -0.3750000   0.3750000  -0.3750000), wk =   0.0312500
        k(    5) = (   0.5000000  -0.5000000   0.5000000), wk =   0.0156250
        k(    6) = (   0.0000000   0.2500000   0.0000000), wk =   0.0234375
        k(    7) = (  -0.1250000   0.3750000  -0.1250000), wk =   0.0937500
        k(    8) = (  -0.2500000   0.5000000  -0.2500000), wk =   0.0937500
        k(    9) = (   0.6250000  -0.3750000   0.6250000), wk =   0.0937500
        k(   10) = (   0.5000000  -0.2500000   0.5000000), wk =   0.0937500
        k(   11) = (   0.3750000  -0.1250000   0.3750000), wk =   0.0937500
        k(   12) = (   0.2500000   0.0000000   0.2500000), wk =   0.0468750
        k(   13) = (   0.0000000   0.5000000   0.0000000), wk =   0.0234375
        k(   14) = (  -0.1250000   0.6250000  -0.1250000), wk =   0.0937500
        k(   15) = (   0.7500000  -0.2500000   0.7500000), wk =   0.0937500
        k(   16) = (   0.6250000  -0.1250000   0.6250000), wk =   0.0937500
        k(   17) = (   0.5000000   0.0000000   0.5000000), wk =   0.0468750
        k(   18) = (   0.0000000   0.7500000   0.0000000), wk =   0.0234375
        k(   19) = (   0.8750000  -0.1250000   0.8750000), wk =   0.0937500
        k(   20) = (   0.7500000   0.0000000   0.7500000), wk =   0.0468750
        k(   21) = (   0.0000000  -1.0000000   0.0000000), wk =   0.0117188
        k(   22) = (  -0.2500000   0.5000000   0.0000000), wk =   0.0937500
        k(   23) = (   0.6250000  -0.3750000   0.8750000), wk =   0.1875000
        k(   24) = (   0.5000000  -0.2500000   0.7500000), wk =   0.0937500
        k(   25) = (   0.7500000  -0.2500000   1.0000000), wk =   0.0937500
        k(   26) = (   0.6250000  -0.1250000   0.8750000), wk =   0.1875000
        k(   27) = (   0.5000000   0.0000000   0.7500000), wk =   0.0937500
        k(   28) = (  -0.2500000  -1.0000000   0.0000000), wk =   0.0468750
        k(   29) = (  -0.5000000  -1.0000000   0.0000000), wk =   0.0234375

                       cryst. coord.
        k(    1) = (   0.0000000   0.0000000   0.0000000), wk =   0.0039062
        k(    2) = (   0.0000000   0.0000000   0.1250000), wk =   0.0312500
        k(    3) = (   0.0000000   0.0000000   0.2500000), wk =   0.0312500
        k(    4) = (   0.0000000   0.0000000   0.3750000), wk =   0.0312500
        k(    5) = (   0.0000000   0.0000000  -0.5000000), wk =   0.0156250
        k(    6) = (   0.0000000   0.1250000   0.1250000), wk =   0.0234375
        k(    7) = (   0.0000000   0.1250000   0.2500000), wk =   0.0937500
        k(    8) = (   0.0000000   0.1250000   0.3750000), wk =   0.0937500
        k(    9) = (   0.0000000   0.1250000  -0.5000000), wk =   0.0937500
        k(   10) = (   0.0000000   0.1250000  -0.3750000), wk =   0.0937500
        k(   11) = (   0.0000000   0.1250000  -0.2500000), wk =   0.0937500
        k(   12) = (   0.0000000   0.1250000  -0.1250000), wk =   0.0468750
        k(   13) = (   0.0000000   0.2500000   0.2500000), wk =   0.0234375
        k(   14) = (   0.0000000   0.2500000   0.3750000), wk =   0.0937500
        k(   15) = (   0.0000000   0.2500000  -0.5000000), wk =   0.0937500
        k(   16) = (   0.0000000   0.2500000  -0.3750000), wk =   0.0937500
        k(   17) = (   0.0000000   0.2500000  -0.2500000), wk =   0.0468750
        k(   18) = (   0.0000000   0.3750000   0.3750000), wk =   0.0234375
        k(   19) = (   0.0000000   0.3750000  -0.5000000), wk =   0.0937500
        k(   20) = (   0.0000000   0.3750000  -0.3750000), wk =   0.0468750
        k(   21) = (   0.0000000  -0.5000000  -0.5000000), wk =   0.0117188
        k(   22) = (   0.1250000   0.2500000   0.3750000), wk =   0.0937500
        k(   23) = (   0.1250000   0.2500000  -0.5000000), wk =   0.1875000
        k(   24) = (   0.1250000   0.2500000  -0.3750000), wk =   0.0937500
        k(   25) = (   0.1250000   0.3750000  -0.5000000), wk =   0.0937500
        k(   26) = (   0.1250000   0.3750000  -0.3750000), wk =   0.1875000
        k(   27) = (   0.1250000   0.3750000  -0.2500000), wk =   0.0937500
        k(   28) = (   0.1250000  -0.5000000  -0.3750000), wk =   0.0468750
        k(   29) = (   0.2500000  -0.5000000  -0.2500000), wk =   0.0234375

     Dense  grid:    20539 G-vectors     FFT dimensions: (  40,  40,  40)

     Dynamical RAM for                 wfc:       1.18 MB

     Dynamical RAM for     wfc (w. buffer):      35.42 MB

     Dynamical RAM for           str. fact:       0.94 MB

     Dynamical RAM for           local pot:       0.00 MB

     Dynamical RAM for          nlocal pot:       2.13 MB

     Dynamical RAM for                qrad:       3.41 MB

     Dynamical RAM for          rho,v,vnew:       2.41 MB

     Dynamical RAM for               rhoin:       0.80 MB

     Dynamical RAM for            rho*nmix:       5.01 MB

     Dynamical RAM for           G-vectors:       1.33 MB

     Dynamical RAM for          h,s,v(r/c):       0.16 MB

     Dynamical RAM for          <psi|beta>:       0.02 MB

     Dynamical RAM for                 psi:       2.36 MB

     Dynamical RAM for                hpsi:       2.36 MB

     Dynamical RAM for                spsi:       2.36 MB

     Dynamical RAM for      wfcinit/wfcrot:       2.38 MB

     Dynamical RAM for           addusdens:      58.61 MB

     Estimated static dynamical RAM per process >      55.14 MB

     Estimated max dynamical RAM per process >     113.74 MB

     Check: negative core charge=   -0.000005

     Initial potential from superposition of free atoms

     starting charge   30.99935, renormalised to   31.00000
     Starting wfcs are   27 randomized atomic wfcs +    3 random wfcs
     Checking if some PAW data can be deallocated... 

     total cpu time spent up to now is        3.0 secs

     Self-consistent Calculation

     iteration #  1     ecut=    50.00 Ry     beta= 0.70
     Davidson diagonalization with overlap
     ethr =  1.00E-02,  avg # of iterations =  5.4

     total cpu time spent up to now is        9.7 secs

     total energy              =   -1144.24988630 Ry
     estimated scf accuracy    <       2.11150219 Ry

     iteration #  2     ecut=    50.00 Ry     beta= 0.70
     Davidson diagonalization with overlap
     ethr =  6.81E-03,  avg # of iterations =  2.2

     total cpu time spent up to now is       15.8 secs

     total energy              =   -1142.94558978 Ry
     estimated scf accuracy    <      56.45277934 Ry

     iteration #  3     ecut=    50.00 Ry     beta= 0.70
     Davidson diagonalization with overlap
     ethr =  6.81E-03,  avg # of iterations =  2.0

     total cpu time spent up to now is       21.4 secs

     total energy              =   -1145.73737230 Ry
     estimated scf accuracy    <       1.50323908 Ry

     iteration #  4     ecut=    50.00 Ry     beta= 0.70
     Davidson diagonalization with overlap
     ethr =  4.85E-03,  avg # of iterations =  1.0

     total cpu time spent up to now is       26.3 secs

     total energy              =   -1145.88196232 Ry
     estimated scf accuracy    <       0.54312312 Ry

     iteration #  5     ecut=    50.00 Ry     beta= 0.70
     Davidson diagonalization with overlap
     ethr =  1.75E-03,  avg # of iterations =  1.0

     total cpu time spent up to now is       31.2 secs

     total energy              =   -1145.89149429 Ry
     estimated scf accuracy    <       0.13980390 Ry

     iteration #  6     ecut=    50.00 Ry     beta= 0.70
     Davidson diagonalization with overlap
     ethr =  4.51E-04,  avg # of iterations =  1.1

     total cpu time spent up to now is       36.1 secs

     total energy              =   -1145.89606398 Ry
     estimated scf accuracy    <       0.01063954 Ry

     iteration #  7     ecut=    50.00 Ry     beta= 0.70
     Davidson diagonalization with overlap
     ethr =  3.43E-05,  avg # of iterations =  3.7

     total cpu time spent up to now is       41.5 secs

     total energy              =   -1145.89734435 Ry
     estimated scf accuracy    <       0.00696746 Ry

     iteration #  8     ecut=    50.00 Ry     beta= 0.70
     Davidson diagonalization with overlap
     ethr =  2.25E-05,  avg # of iterations =  1.4

     total cpu time spent up to now is       46.4 secs

     total energy              =   -1145.89793303 Ry
     estimated scf accuracy    <       0.00025900 Ry

     iteration #  9     ecut=    50.00 Ry     beta= 0.70
     Davidson diagonalization with overlap
     ethr =  8.35E-07,  avg # of iterations =  6.5

     total cpu time spent up to now is       53.4 secs

     total energy              =   -1145.89814856 Ry
     estimated scf accuracy    <       0.00024486 Ry

     iteration # 10     ecut=    50.00 Ry     beta= 0.70
     Davidson diagonalization with overlap
     ethr =  7.90E-07,  avg # of iterations =  1.1

     total cpu time spent up to now is       58.2 secs

     total energy              =   -1145.89810037 Ry
     estimated scf accuracy    <       0.00029682 Ry

     iteration # 11     ecut=    50.00 Ry     beta= 0.70
     Davidson diagonalization with overlap
     ethr =  7.90E-07,  avg # of iterations =  1.0

     total cpu time spent up to now is       63.1 secs

     total energy              =   -1145.89811757 Ry
     estimated scf accuracy    <       0.00002251 Ry

     iteration # 12     ecut=    50.00 Ry     beta= 0.70
     Davidson diagonalization with overlap
     ethr =  7.26E-08,  avg # of iterations =  1.1

     total cpu time spent up to now is       68.0 secs

     total energy              =   -1145.89811919 Ry
     estimated scf accuracy    <       0.00000079 Ry

     iteration # 13     ecut=    50.00 Ry     beta= 0.70
     Davidson diagonalization with overlap
     ethr =  2.54E-09,  avg # of iterations =  3.6

     total cpu time spent up to now is       73.9 secs

     End of self-consistent calculation

          k = 0.0000 0.0000 0.0000 (  2637 PWs)   bands (ev):

     0.5492   3.8357   3.8357   4.0947   4.0947   4.0947   4.8589   4.8589
     4.8589   5.6577   5.6577   5.9010   5.9010   5.9010   6.2456   6.2456
    12.7927  12.8961  12.8961  12.8961  14.6941  14.7309  14.7309  14.7309
    17.3644  17.3644  17.3644  20.1459  20.9279  20.9279

     occupation numbers 
     1.0000   1.0000   1.0000   1.0000   1.0000   1.0000   1.0000   1.0000
     1.0000   1.0000   1.0000   1.0000   1.0000   1.0000   1.0323   1.0323
    -0.0000  -0.0000  -0.0000  -0.0000  -0.0000  -0.0000  -0.0000  -0.0000
    -0.0000  -0.0000  -0.0000  -0.0000  -0.0000  -0.0000

          k =-0.1250 0.1250-0.1250 (  2616 PWs)   bands (ev):

     0.7348   3.8811   3.8811   4.0654   4.1338   4.1338   4.8403   4.8403
     4.9035   5.5855   5.5855   5.7623   5.8961   5.8961   6.2545   6.2545
    10.8705  12.7336  12.7336  13.3627  14.6869  14.7946  14.7946  15.7322
    17.3283  17.3283  17.8707  21.2944  21.6020  21.6020

     occupation numbers 
     1.0000   1.0000   1.0000   1.0000   1.0000   1.0000   1.0000   1.0000
     1.0000   1.0000   1.0000   1.0000   1.0000   1.0000   1.0353   1.0353
    -0.0000  -0.0000  -0.0000  -0.0000  -0.0000  -0.0000  -0.0000  -0.0000
    -0.0000  -0.0000  -0.0000  -0.0000  -0.0000  -0.0000

          k =-0.2500 0.2500-0.2500 (  2590 PWs)   bands (ev):

     1.2711   4.0083   4.0083   4.0263   4.2327   4.2327   4.7939   4.7939
     4.9761   5.3897   5.3897   5.3960   5.9057   5.9057   6.2572   6.2572
     8.8151  12.4398  12.4398  13.0012  14.6209  14.6209  15.0370  16.3889
    17.8500  17.8500  20.3719  23.1107  23.1107  23.6280

     occupation numbers 
     1.0000   1.0000   1.0000   1.0000   1.0000   1.0000   1.0000   1.0000
     1.0000   1.0000   1.0000   1.0000   1.0000   1.0000   1.0354   1.0354
    -0.0000  -0.0000  -0.0000  -0.0000  -0.0000  -0.0000  -0.0000  -0.0000
    -0.0000  -0.0000  -0.0000  -0.0000  -0.0000  -0.0000

          k =-0.3750 0.3750-0.3750 (  2572 PWs)   bands (ev):

     2.0614   4.0148   4.1779   4.1779   4.3430   4.3430   4.7482   4.7482
     4.7500   5.1355   5.1442   5.1442   5.9367   5.9367   6.2374   6.2374
     7.2667  12.2117  12.2117  12.7789  14.2857  14.2857  14.6609  18.2439
    19.0646  19.0646  22.8182  23.3350  23.3350  24.1761

     occupation numbers 
     1.0000   1.0000   1.0000   1.0000   1.0000   1.0000   1.0000   1.0000
     1.0000   1.0000   1.0000   1.0000   1.0000   1.0000   1.0274   1.0274
    -0.0000  -0.0000  -0.0000  -0.0000  -0.0000  -0.0000  -0.0000  -0.0000
    -0.0000  -0.0000  -0.0000  -0.0000  -0.0000  -0.0000

          k = 0.5000-0.5000 0.5000 (  2536 PWs)   bands (ev):

     2.6222   3.9419   4.2728   4.2728   4.3959   4.3959   4.4070   4.7390
     4.7390   5.0028   5.0028   5.1289   5.9572   5.9572   6.2213   6.2213
     6.6868  12.1269  12.1269  12.7061  14.1414  14.1414  14.5183  20.1028
    20.1137  20.1137  21.1884  22.0489  22.0489  25.8850

     occupation numbers 
     1.0000   1.0000   1.0000   1.0000   1.0000   1.0000   1.0000   1.0000
     1.0000   1.0000   1.0000   1.0000   1.0000   1.0000   1.0167   1.0167
    -0.0000  -0.0000  -0.0000  -0.0000  -0.0000  -0.0000  -0.0000  -0.0000
    -0.0000  -0.0000  -0.0000  -0.0000  -0.0000  -0.0000

          k = 0.0000 0.2500 0.0000 (  2597 PWs)   bands (ev):

     0.7956   3.8852   3.8964   4.0302   4.1576   4.1576   4.7902   4.8922
     4.8922   5.4878   5.6556   5.8448   5.8601   5.8601   6.1960   6.2886
    11.3928  11.8824  11.8824  13.0433  14.8898  15.2966  15.5843  15.5843
    17.1268  18.1139  18.1139  20.5531  20.9665  23.0357

     occupation numbers 
     1.0000   1.0000   1.0000   1.0000   1.0000   1.0000   1.0000   1.0000
     1.0000   1.0000   1.0000   1.0000   1.0000   1.0000   1.0054   0.9767
    -0.0000  -0.0000  -0.0000  -0.0000  -0.0000  -0.0000  -0.0000  -0.0000
    -0.0000  -0.0000  -0.0000  -0.0000  -0.0000  -0.0000

          k =-0.1250 0.3750-0.1250 (  2588 PWs)   bands (ev):

     1.2124   3.9237   3.9930   4.0074   4.2383   4.2516   4.6754   4.9021
     4.9403   5.3443   5.5435   5.6368   5.8740   5.8932   6.1620   6.3050
     9.5645  11.2951  11.7730  12.6636  14.7605  15.3685  15.9006  16.4569
    17.9084  18.7630  19.6034  21.7162  21.7773  24.9476

     occupation numbers 
     1.0000   1.0000   1.0000   1.0000   1.0000   1.0000   1.0000   1.0000
     1.0000   1.0000   1.0000   1.0000   1.0000   1.0000   1.0007   0.8766
    -0.0000  -0.0000  -0.0000  -0.0000  -0.0000  -0.0000  -0.0000  -0.0000
    -0.0000  -0.0000  -0.0000  -0.0000  -0.0000  -0.0000

          k =-0.2500 0.5000-0.2500 (  2576 PWs)   bands (ev):

     1.9217   3.9075   4.0766   4.1376   4.3420   4.3956   4.5781   4.8696
     4.9105   5.1890   5.2885   5.3594   5.9181   5.9216   6.1649   6.2957
     7.7576  11.0706  11.1792  12.6949  14.7311  15.6308  16.0422  16.5010
    19.2632  19.7607  22.1386  22.6209  23.3185  24.5214

     occupation numbers 
     1.0000   1.0000   1.0000   1.0000   1.0000   1.0000   1.0000   1.0000
     1.0000   1.0000   1.0000   1.0000   1.0000   1.0000   1.0008   0.9402
    -0.0000  -0.0000  -0.0000  -0.0000  -0.0000  -0.0000  -0.0000  -0.0000
    -0.0000  -0.0000  -0.0000  -0.0000  -0.0000  -0.0000

          k = 0.6250-0.3750 0.6250 (  2564 PWs)   bands (ev):

     2.6561   3.7809   4.1387   4.2491   4.3723   4.4433   4.7029   4.7564
     4.8144   5.0258   5.0788   5.2194   5.9250   5.9581   6.2243   6.2416
     6.7418  10.6229  11.2555  12.7374  14.5257  15.1914  16.2780  17.9768
    20.2131  20.3004  21.5705  22.1087  24.0508  24.9908

     occupation numbers 
     1.0000   1.0000   1.0000   1.0000   1.0000   1.0000   1.0000   1.0000
     1.0000   1.0000   1.0000   1.0000   1.0000   1.0000   1.0186   1.0301
    -0.0000  -0.0000  -0.0000  -0.0000  -0.0000  -0.0000  -0.0000  -0.0000
    -0.0000  -0.0000  -0.0000  -0.0000  -0.0000  -0.0000

          k = 0.5000-0.2500 0.5000 (  2569 PWs)   bands (ev):

     2.4499   3.8611   4.1651   4.2375   4.3918   4.4435   4.6068   4.7008
     4.8637   5.0294   5.1006   5.2924   5.9063   5.9778   6.1602   6.2929
     6.9826  10.3012  11.8336  12.9508  14.3984  14.8039  16.4910  18.2321
    18.6918  20.1100  22.1619  23.1750  23.7381  24.3019

     occupation numbers 
     1.0000   1.0000   1.0000   1.0000   1.0000   1.0000   1.0000   1.0000
     1.0000   1.0000   1.0000   1.0000   1.0000   1.0000   1.0006   0.9558
    -0.0000  -0.0000  -0.0000  -0.0000  -0.0000  -0.0000  -0.0000  -0.0000
    -0.0000  -0.0000  -0.0000  -0.0000  -0.0000  -0.0000

          k = 0.3750-0.1250 0.3750 (  2588 PWs)   bands (ev):

     1.6621   3.9480   4.0577   4.0996   4.3144   4.3574   4.6879   4.7888
     4.9151   5.2315   5.2405   5.4922   5.8983   5.9362   6.1363   6.3238
     8.3151  10.3124  12.7155  13.3850  14.4019  14.4060  16.0921  17.1665
    17.3640  20.0930  21.2034  22.3112  23.1164  24.8711

     occupation numbers 
     1.0000   1.0000   1.0000   1.0000   1.0000   1.0000   1.0000   1.0000
     1.0000   1.0000   1.0000   1.0000   1.0000   1.0000   1.0001   0.6934
    -0.0000  -0.0000  -0.0000  -0.0000  -0.0000  -0.0000  -0.0000  -0.0000
    -0.0000  -0.0000  -0.0000  -0.0000  -0.0000  -0.0000

          k = 0.2500 0.0000 0.2500 (  2605 PWs)   bands (ev):

     1.0367   3.9440   3.9548   4.0073   4.1894   4.2244   4.7612   4.8970
     4.9012   5.4339   5.4658   5.6928   5.8707   5.9024   6.1868   6.3073
     9.9957  10.9244  13.5620  13.9020  13.9890  14.1755  15.3115  16.7133
    16.8934  18.5536  19.2092  20.8895  23.0638  23.1990

     occupation numbers 
     1.0000   1.0000   1.0000   1.0000   1.0000   1.0000   1.0000   1.0000
     1.0000   1.0000   1.0000   1.0000   1.0000   1.0000   1.0033   0.8576
    -0.0000  -0.0000  -0.0000  -0.0000  -0.0000  -0.0000  -0.0000  -0.0000
    -0.0000  -0.0000  -0.0000  -0.0000  -0.0000  -0.0000

          k = 0.0000 0.5000 0.0000 (  2610 PWs)   bands (ev):

     1.4934   3.8151   4.0024   4.0564   4.2945   4.2945   4.5222   4.9670
     4.9670   5.3249   5.6518   5.7870   5.8462   5.8462   6.0614   6.3063
    10.3915  10.3915  10.4650  10.8958  14.1469  16.9684  16.9684  18.0030
    18.8649  19.8945  19.8945  20.9933  21.0857  26.0338

     occupation numbers 
     1.0000   1.0000   1.0000   1.0000   1.0000   1.0000   1.0000   1.0000
     1.0000   1.0000   1.0000   1.0000   1.0000   1.0000   1.0000   0.8661
    -0.0000  -0.0000  -0.0000  -0.0000  -0.0000  -0.0000  -0.0000  -0.0000
    -0.0000  -0.0000  -0.0000  -0.0000  -0.0000  -0.0000

          k =-0.1250 0.6250-0.1250 (  2577 PWs)   bands (ev):

     2.0658   3.7444   3.9321   4.1654   4.3748   4.3761   4.5111   4.9588
     4.9813   5.2918   5.5197   5.6586   5.8818   5.9331   6.0833   6.3168
     8.4845   9.7233   9.9230  11.4594  14.3498  16.9207  17.2898  18.8315
    20.0814  20.7320  21.4003  21.7391  22.4293  24.3108

     occupation numbers 
     1.0000   1.0000   1.0000   1.0000   1.0000   1.0000   1.0000   1.0000
     1.0000   1.0000   1.0000   1.0000   1.0000   1.0000   1.0000   0.7690
    -0.0000  -0.0000  -0.0000  -0.0000  -0.0000  -0.0000  -0.0000  -0.0000
    -0.0000  -0.0000  -0.0000  -0.0000  -0.0000  -0.0000

          k = 0.7500-0.2500 0.7500 (  2583 PWs)   bands (ev):

     2.7711   3.6277   3.8984   4.2454   4.3221   4.5019   4.6750   4.8867
     5.0835   5.2208   5.2351   5.5296   5.8425   6.0358   6.2360   6.3135
     6.9836   8.9437  10.0071  11.9892  15.5190  16.5030  16.9847  18.7580
    20.4532  20.6003  22.0032  22.2975  23.8178  25.0578

     occupation numbers 
     1.0000   1.0000   1.0000   1.0000   1.0000   1.0000   1.0000   1.0000
     1.0000   1.0000   1.0000   1.0000   1.0000   1.0000   1.0265   0.8011
    -0.0000  -0.0000  -0.0000  -0.0000  -0.0000  -0.0000  -0.0000  -0.0000
    -0.0000  -0.0000  -0.0000  -0.0000  -0.0000  -0.0000

          k = 0.6250-0.1250 0.6250 (  2578 PWs)   bands (ev):

     2.9506   3.6400   4.0112   4.2170   4.2638   4.5848   4.7380   4.8424
     4.9313   5.0707   5.2137   5.4761   5.8410   6.0034   6.2348   6.3289
     6.8783   8.4571  10.6205  12.3549  15.8766  16.5219  17.5009  18.1172
    18.6420  19.4641  22.6508  23.9359  24.3090  25.0365

     occupation numbers 
     1.0000   1.0000   1.0000   1.0000   1.0000   1.0000   1.0000   1.0000
     1.0000   1.0000   1.0000   1.0000   1.0000   1.0000   1.0257   0.6339
    -0.0000  -0.0000  -0.0000  -0.0000  -0.0000  -0.0000  -0.0000  -0.0000
    -0.0000  -0.0000  -0.0000  -0.0000  -0.0000  -0.0000

          k = 0.5000 0.0000 0.5000 (  2570 PWs)   bands (ev):

     2.3081   3.8496   4.0756   4.2121   4.3803   4.4917   4.6542   4.6717
     4.9207   5.0547   5.1849   5.5315   5.8683   6.0094   6.0742   6.3518
     7.9173   8.5874  11.6129  12.8112  15.4465  15.6834  16.3918  17.4659
    18.9642  20.0113  21.3453  23.1737  23.5934  25.4666

     occupation numbers 
     1.0000   1.0000   1.0000   1.0000   1.0000   1.0000   1.0000   1.0000
     1.0000   1.0000   1.0000   1.0000   1.0000   1.0000   1.0000   0.3531
    -0.0000  -0.0000  -0.0000  -0.0000  -0.0000  -0.0000  -0.0000  -0.0000
    -0.0000  -0.0000  -0.0000  -0.0000  -0.0000  -0.0000

          k = 0.0000 0.7500 0.0000 (  2570 PWs)   bands (ev):

     2.4475   3.5846   3.8244   4.2441   4.4077   4.4077   4.5516   4.9826
     4.9826   5.3525   5.6528   5.7098   5.8949   6.0742   6.0742   6.3556
     8.3403   9.1430   9.1430  10.4115  13.7297  18.6613  18.6613  20.4121
    21.2083  21.2669  21.7773  21.7773  22.1519  24.2710

     occupation numbers 
     1.0000   1.0000   1.0000   1.0000   1.0000   1.0000   1.0000   1.0000
     1.0000   1.0000   1.0000   1.0000   1.0000   1.0000   1.0000   0.3090
    -0.0000  -0.0000  -0.0000  -0.0000  -0.0000  -0.0000  -0.0000  -0.0000
    -0.0000  -0.0000  -0.0000  -0.0000  -0.0000  -0.0000

          k = 0.8750-0.1250 0.8750 (  2576 PWs)   bands (ev):

     2.9367   3.4666   3.7857   4.2884   4.3692   4.4912   4.6473   4.9302
     5.1169   5.3373   5.5731   5.6483   5.7600   6.2446   6.2679   6.4781
     7.3925   7.9858   9.0035  11.0967  14.0854  18.5503  18.9030  20.4658
    20.7292  21.7830  22.2216  22.4700  23.3091  24.2101

     occupation numbers 
     1.0000   1.0000   1.0000   1.0000   1.0000   1.0000   1.0000   1.0000
     1.0000   1.0000   1.0000   1.0000   1.0000   1.0318   1.0300  -0.0072
    -0.0000  -0.0000  -0.0000  -0.0000  -0.0000  -0.0000  -0.0000  -0.0000
    -0.0000  -0.0000  -0.0000  -0.0000  -0.0000  -0.0000

          k = 0.7500 0.0000 0.7500 (  2586 PWs)   bands (ev):

     3.3136   3.3751   3.8317   4.2067   4.2778   4.6152   4.6991   4.8393
     5.2366   5.2421   5.4158   5.5610   5.7691   6.3152   6.3370   6.4528
     6.9866   7.2353   9.5806  11.8130  15.4144  17.7768  18.2908  18.6112
    19.0596  21.7520  22.2735  23.6486  23.9294  25.4796

     occupation numbers 
     1.0000   1.0000   1.0000   1.0000   1.0000   1.0000   1.0000   1.0000
     1.0000   1.0000   1.0000   1.0000   1.0000   0.7850   0.5341  -0.0202
    -0.0000  -0.0000  -0.0000  -0.0000  -0.0000  -0.0000  -0.0000  -0.0000
    -0.0000  -0.0000  -0.0000  -0.0000  -0.0000  -0.0000

          k = 0.0000-1.0000 0.0000 (  2586 PWs)   bands (ev):

     3.0387   3.3443   3.7850   4.3341   4.4491   4.4491   4.7340   4.9617
     4.9617   5.3905   5.6440   5.6592   5.8073   6.3069   6.3069   6.7877
     6.8230   8.5769   8.5769  10.3297  13.6123  20.0323  20.0323  21.3462
    21.3765  21.6812  21.6812  21.8720  23.8768  24.1854

     occupation numbers 
     1.0000   1.0000   1.0000   1.0000   1.0000   1.0000   1.0000   1.0000
     1.0000   1.0000   1.0000   1.0000   1.0000   0.8610   0.8610  -0.0000
    -0.0000  -0.0000  -0.0000  -0.0000  -0.0000  -0.0000  -0.0000  -0.0000
    -0.0000  -0.0000  -0.0000  -0.0000  -0.0000  -0.0000

          k =-0.2500 0.5000 0.0000 (  2585 PWs)   bands (ev):

     1.7144   3.8668   4.0050   4.1203   4.3249   4.3686   4.5458   4.9049
     4.9397   5.2728   5.3696   5.6171   5.8806   5.9353   6.0860   6.3264
     8.8768   9.6160  11.2986  12.7870  14.9020  15.0464  16.6389  17.6473
    18.4408  20.3040  21.1769  21.4476  22.6728  24.3990

     occupation numbers 
     1.0000   1.0000   1.0000   1.0000   1.0000   1.0000   1.0000   1.0000
     1.0000   1.0000   1.0000   1.0000   1.0000   1.0000   1.0000   0.6634
    -0.0000  -0.0000  -0.0000  -0.0000  -0.0000  -0.0000  -0.0000  -0.0000
    -0.0000  -0.0000  -0.0000  -0.0000  -0.0000  -0.0000

          k = 0.6250-0.3750 0.8750 (  2580 PWs)   bands (ev):

     2.4351   3.7901   3.9787   4.2424   4.3931   4.4262   4.6378   4.8227
     4.9707   5.1116   5.1943   5.5177   5.8543   6.0090   6.1302   6.3292
     7.4446   9.2237  10.4445  13.3829  14.4019  15.8961  17.0483  18.1396
    19.3291  20.1668  22.1069  22.6573  23.5615  24.7034

     occupation numbers 
     1.0000   1.0000   1.0000   1.0000   1.0000   1.0000   1.0000   1.0000
     1.0000   1.0000   1.0000   1.0000   1.0000   1.0000   1.0001   0.6304
    -0.0000  -0.0000  -0.0000  -0.0000  -0.0000  -0.0000  -0.0000  -0.0000
    -0.0000  -0.0000  -0.0000  -0.0000  -0.0000  -0.0000

          k = 0.5000-0.2500 0.7500 (  2580 PWs)   bands (ev):

     2.9477   3.6049   4.0060   4.2250   4.4147   4.4729   4.7535   4.7909
     4.9253   5.0530   5.2343   5.3912   5.8367   6.0647   6.2173   6.3056
     6.6618   9.2885  10.0244  13.5877  14.0952  16.9871  17.4259  18.0716
    18.4147  20.6892  21.6832  24.0683  24.3623  24.6339

     occupation numbers 
     1.0000   1.0000   1.0000   1.0000   1.0000   1.0000   1.0000   1.0000
     1.0000   1.0000   1.0000   1.0000   1.0000   1.0000   1.0144   0.8716
    -0.0000  -0.0000  -0.0000  -0.0000  -0.0000  -0.0000  -0.0000  -0.0000
    -0.0000  -0.0000  -0.0000  -0.0000  -0.0000  -0.0000

          k = 0.7500-0.2500 1.0000 (  2574 PWs)   bands (ev):

     2.6261   3.6451   3.8232   4.2435   4.3587   4.4755   4.6103   4.9315
     5.0579   5.2795   5.3933   5.6638   5.7875   6.1092   6.1672   6.3566
     7.9506   8.4656   9.0601  12.1145  14.5119  16.4365  18.8550  19.7058
    20.4702  20.7376  21.5171  22.7076  23.2168  24.4255

     occupation numbers 
     1.0000   1.0000   1.0000   1.0000   1.0000   1.0000   1.0000   1.0000
     1.0000   1.0000   1.0000   1.0000   1.0000   1.0000   1.0010   0.2981
    -0.0000  -0.0000  -0.0000  -0.0000  -0.0000  -0.0000  -0.0000  -0.0000
    -0.0000  -0.0000  -0.0000  -0.0000  -0.0000  -0.0000

          k = 0.6250-0.1250 0.8750 (  2572 PWs)   bands (ev):

     3.1766   3.5047   3.8287   4.1646   4.3799   4.5953   4.6913   4.8593
     5.0713   5.2215   5.3604   5.6186   5.7386   6.2701   6.3315   6.4851
     6.8542   7.9503   8.8366  12.9794  15.5394  15.8526  17.9529  19.1682
    20.4852  21.2632  21.8558  23.2767  23.9229  24.5412

     occupation numbers 
     1.0000   1.0000   1.0000   1.0000   1.0000   1.0000   1.0000   1.0000
     1.0000   1.0000   1.0000   1.0000   1.0000   1.0275   0.6026  -0.0050
    -0.0000  -0.0000  -0.0000  -0.0000  -0.0000  -0.0000  -0.0000  -0.0000
    -0.0000  -0.0000  -0.0000  -0.0000  -0.0000  -0.0000

          k = 0.5000 0.0000 0.7500 (  2578 PWs)   bands (ev):

     3.0219   3.6299   3.8924   4.1574   4.4267   4.5654   4.7192   4.8073
     4.9254   5.1797   5.2782   5.5978   5.7692   6.1313   6.2437   6.3653
     7.3292   7.7467   9.4811  13.6144  14.8560  16.3636  17.5533  18.7739
    19.3160  20.6367  21.7619  23.9123  24.0516  25.4515

     occupation numbers 
     1.0000   1.0000   1.0000   1.0000   1.0000   1.0000   1.0000   1.0000
     1.0000   1.0000   1.0000   1.0000   1.0000   1.0001   1.0313   0.2061
    -0.0000  -0.0000  -0.0000  -0.0000  -0.0000  -0.0000  -0.0000  -0.0000
    -0.0000  -0.0000  -0.0000  -0.0000  -0.0000  -0.0000

          k =-0.2500-1.0000 0.0000 (  2568 PWs)   bands (ev):

     3.2002   3.4012   3.7769   4.2568   4.3250   4.5690   4.6526   4.9183
     5.2644   5.3301   5.4314   5.6642   5.6729   6.3144   6.3613   6.8279
     6.8847   7.8797   8.1984  11.9050  14.3812  17.7180  18.6808  20.3975
    21.4378  21.4993  22.6870  22.8751  23.1735  23.8448

     occupation numbers 
     1.0000   1.0000   1.0000   1.0000   1.0000   1.0000   1.0000   1.0000
     1.0000   1.0000   1.0000   1.0000   1.0000   0.7928   0.2463  -0.0000
    -0.0000  -0.0000  -0.0000  -0.0000  -0.0000  -0.0000  -0.0000  -0.0000
    -0.0000  -0.0000  -0.0000  -0.0000  -0.0000  -0.0000

          k =-0.5000-1.0000 0.0000 (  2580 PWs)   bands (ev):

     3.3975   3.4778   3.7633   4.0706   4.5467   4.5936   4.6722   4.8809
     4.8937   5.2357   5.4793   5.6674   5.6707   6.3190   6.4107   6.8342
     7.1073   7.5518   7.7225  14.6056  14.6479  16.2102  16.2566  21.0540
    21.2561  21.5316  22.5505  22.5917  22.6603  23.9105

     occupation numbers 
     1.0000   1.0000   1.0000   1.0000   1.0000   1.0000   1.0000   1.0000
     1.0000   1.0000   1.0000   1.0000   1.0000   0.7460  -0.0290  -0.0000
    -0.0000  -0.0000  -0.0000  -0.0000  -0.0000  -0.0000  -0.0000  -0.0000
    -0.0000  -0.0000  -0.0000  -0.0000  -0.0000  -0.0000

     the Fermi energy is     6.3398 ev

!    total energy              =   -1145.89811943 Ry

     total all-electron energy =    -43178.857499 Ry
     estimated scf accuracy    <       0.00000006 Ry
     smearing contrib. (-TS)   =      -0.00050456 Ry
     internal energy E=F+TS    =   -1145.89761487 Ry

     The total energy is F=E-TS. E is the sum of the following terms:
     one-electron contribution =     -86.32537184 Ry
     hartree contribution      =      80.37960825 Ry
     xc contribution           =    -109.73574426 Ry
     ewald contribution        =    -170.69125568 Ry
     one-center paw contrib.   =    -859.52485135 Ry
      -> PAW hartree energy AE =     217.23229610 Ry
      -> PAW hartree energy PS =    -216.07981328 Ry
      -> PAW xc energy AE      =    -969.56806541 Ry
      -> PAW xc energy PS      =     108.89073125 Ry
      -> total E_H with PAW    =      81.53209106 Ry
      -> total E_XC with PAW   =    -970.41307842 Ry

     convergence has been achieved in  13 iterations

     Writing output data file ././CuPtNi.save/

     init_run     :      3.84s CPU      2.76s WALL (       1 calls)
     electrons    :    117.70s CPU     70.92s WALL (       1 calls)

     Called by init_run:
     wfcinit      :      2.59s CPU      1.58s WALL (       1 calls)
     wfcinit:atom :      0.05s CPU      0.02s WALL (      29 calls)
     wfcinit:wfcr :      2.41s CPU      1.50s WALL (      29 calls)
     potinit      :      0.37s CPU      0.38s WALL (       1 calls)
     hinit0       :      0.71s CPU      0.66s WALL (       1 calls)

     Called by electrons:
     c_bands      :     87.53s CPU     50.45s WALL (      13 calls)
     sum_band     :     22.86s CPU     13.75s WALL (      13 calls)
     v_of_rho     :      0.69s CPU      0.44s WALL (      14 calls)
     v_h          :      0.05s CPU      0.03s WALL (      14 calls)
     v_xc         :      0.64s CPU      0.41s WALL (      14 calls)
     newd         :      1.90s CPU      1.63s WALL (      14 calls)
     PAW_pot      :      5.05s CPU      4.85s WALL (      14 calls)
     mix_rho      :      0.11s CPU      0.07s WALL (      13 calls)

     Called by c_bands:
     init_us_2    :      2.10s CPU      0.99s WALL (     783 calls)
     cegterg      :     80.31s CPU     46.38s WALL (     377 calls)

     Called by sum_band:
     sum_band:wei :      0.03s CPU      0.01s WALL (      13 calls)
     sum_band:loo :     19.15s CPU     11.82s WALL (      13 calls)
     sum_band:buf :      0.10s CPU      0.05s WALL (     377 calls)
     sum_band:ini :      0.92s CPU      0.47s WALL (     377 calls)
     sum_band:cal :      0.40s CPU      0.24s WALL (     377 calls)
     sum_band:bec :      0.01s CPU      0.01s WALL (     377 calls)
     addusdens    :      3.57s CPU      1.85s WALL (      13 calls)
     addusd:skk   :      0.01s CPU      0.00s WALL (      39 calls)
     addusd:dgemm :      1.99s CPU      0.73s WALL (      39 calls)
     addusd:qvan2 :      1.37s CPU      0.86s WALL (      39 calls)

     Called by *egterg:
     cdiaghg      :      3.08s CPU      1.18s WALL (    1281 calls)
     cegterg:over :      1.99s CPU      0.72s WALL (     904 calls)
     cegterg:upda :      1.45s CPU      0.56s WALL (     904 calls)
     cegterg:last :      1.97s CPU      0.69s WALL (     611 calls)
     h_psi        :     70.62s CPU     43.34s WALL (    1310 calls)
     s_psi        :      1.36s CPU      0.55s WALL (    1310 calls)
     g_psi        :      0.68s CPU      0.24s WALL (     904 calls)

     Called by h_psi:
     h_psi:calbec :      1.31s CPU      0.91s WALL (    1310 calls)
     vloc_psi     :     67.46s CPU     41.60s WALL (    1310 calls)
     add_vuspsi   :      1.33s CPU      0.60s WALL (    1310 calls)

     General routines
     calbec       :      1.71s CPU      1.14s WALL (    1687 calls)
     fft          :      0.36s CPU      0.23s WALL (     154 calls)
     ffts         :      0.02s CPU      0.01s WALL (      13 calls)
     fftw         :     74.80s CPU     46.29s WALL (   65264 calls)

     Parallel routines

     PAW routines
     PAW_pot      :      5.05s CPU      4.85s WALL (      14 calls)
     PAW_symme    :      0.01s CPU      0.01s WALL (      27 calls)

     PWSCF        :   2m 1.80s CPU   1m13.96s WALL


   This run was terminated on:  13:12:15  22May2024            

=------------------------------------------------------------------------------=
   JOB DONE.
=------------------------------------------------------------------------------=
