
     Program PWSCF v.6.7MaX starts on 22May2024 at 12:57:50 

     This program is part of the open-source Quantum ESPRESSO suite
     for quantum simulation of materials; please cite
         "P. Giannozzi et al., J. Phys.:Condens. Matter 21 395502 (2009);
         "P. Giannozzi et al., J. Phys.:Condens. Matter 29 465901 (2017);
          URL http://www.quantum-espresso.org", 
     in publications or presentations arising from this work. More details at
     http://www.quantum-espresso.org/quote

     Parallel version (MPI), running on     1 processors

     MPI processes distributed on     1 nodes
     Waiting for input...
     Reading input from standard input

     Current dimensions of program PWSCF are:
     Max number of different atomic species (ntypx) = 10
     Max number of k-points (npk) =  40000
     Max angular momentum in pseudopotentials (lmaxx) =  3
     file Cu.UPF: wavefunction(s)  4S 3D renormalized
     file Pt.UPF: wavefunction(s)  6S 5D renormalized
     file Ni.UPF: wavefunction(s)  4S 3D renormalized

     Subspace diagonalization in iterative solution of the eigenvalue problem:
     a serial algorithm will be used


     G-vector sticks info
     --------------------
     sticks:   dense  smooth     PW     G-vecs:    dense   smooth      PW
     Sum         769     769    241                14211    14211    2421



     bravais-lattice index     =            2
     lattice parameter (alat)  =      10.6000  a.u.
     unit-cell volume          =     297.7540 (a.u.)^3
     number of atoms/cell      =            3
     number of atomic types    =            3
     number of electrons       =        31.00
     number of Kohn-Sham states=           30
     kinetic-energy cutoff     =      50.0000  Ry
     charge density cutoff     =     200.0000  Ry
     scf convergence threshold =      1.0E-07
     mixing beta               =       0.7000
     number of iterations used =            8  plain     mixing
     Exchange-correlation= SLA  PW   PBX  PBC
                           (   1   4   3   4   0   0   0)

     celldm(1)=  10.600000  celldm(2)=   0.000000  celldm(3)=   0.000000
     celldm(4)=   0.000000  celldm(5)=   0.000000  celldm(6)=   0.000000

     crystal axes: (cart. coord. in units of alat)
               a(1) = (  -0.500000   0.000000   0.500000 )  
               a(2) = (   0.000000   0.500000   0.500000 )  
               a(3) = (  -0.500000   0.500000   0.000000 )  

     reciprocal axes: (cart. coord. in units 2 pi/alat)
               b(1) = ( -1.000000 -1.000000  1.000000 )  
               b(2) = (  1.000000  1.000000  1.000000 )  
               b(3) = ( -1.000000  1.000000 -1.000000 )  


     PseudoPot. # 1 for Cu read from file:
     ././Cu.UPF
     MD5 check sum: cfffd1f38ee05704b3e17f46f1730a6f
     Pseudo is Projector augmented-wave + core cor, Zval = 11.0
     Generated using &quot;atomic&quot; code by A. Dal Corso  v.6.3
     Shape of augmentation charge: PSQ
     Using radial grid of 1199 points,  6 beta functions with: 
                l(1) =   0
                l(2) =   0
                l(3) =   1
                l(4) =   1
                l(5) =   2
                l(6) =   2
     Q(r) pseudized with 0 coefficients 


     PseudoPot. # 2 for Pt read from file:
     ././Pt.UPF
     MD5 check sum: c5224e9cd7a5e36e81f2def9f50bb494
     Pseudo is Projector augmented-wave + core cor, Zval = 10.0
     Generated using &quot;atomic&quot; code by A. Dal Corso  v.6.3
     Shape of augmentation charge: PSQ
     Using radial grid of 1277 points,  6 beta functions with: 
                l(1) =   0
                l(2) =   0
                l(3) =   1
                l(4) =   1
                l(5) =   2
                l(6) =   2
     Q(r) pseudized with 0 coefficients 


     PseudoPot. # 3 for Ni read from file:
     ././Ni.UPF
     MD5 check sum: 5bc40517020091042a126ac2b4ecef1e
     Pseudo is Projector augmented-wave + core cor, Zval = 10.0
     Generated using "atomic" code by A. Dal Corso  v.5.0.2 svn rev. 9415
     Shape of augmentation charge: PSQ
     Using radial grid of 1195 points,  6 beta functions with: 
                l(1) =   0
                l(2) =   0
                l(3) =   1
                l(4) =   1
                l(5) =   2
                l(6) =   2
     Q(r) pseudized with 0 coefficients 


     atomic species   valence    mass     pseudopotential
        Cu            11.00    63.54600     Cu( 1.00)
        Pt            10.00   195.08000     Pt( 1.00)
        Ni            10.00    58.69000     Ni( 1.00)

     24 Sym. Ops. (no inversion) found


                                    s                        frac. trans.

      isym =  1     identity                                     

 cryst.   s( 1) = (     1          0          0      )
                  (     0          1          0      )
                  (     0          0          1      )

 cart.    s( 1) = (  1.0000000  0.0000000  0.0000000 )
                  (  0.0000000  1.0000000  0.0000000 )
                  (  0.0000000  0.0000000  1.0000000 )


      isym =  2     180 deg rotation - cart. axis [0,0,1]        

 cryst.   s( 2) = (     0          1         -1      )
                  (     1          0         -1      )
                  (     0          0         -1      )

 cart.    s( 2) = ( -1.0000000  0.0000000  0.0000000 )
                  (  0.0000000 -1.0000000  0.0000000 )
                  (  0.0000000  0.0000000  1.0000000 )


      isym =  3     180 deg rotation - cart. axis [0,1,0]        

 cryst.   s( 3) = (    -1          0          0      )
                  (    -1          0          1      )
                  (    -1          1          0      )

 cart.    s( 3) = ( -1.0000000  0.0000000  0.0000000 )
                  (  0.0000000  1.0000000  0.0000000 )
                  (  0.0000000  0.0000000 -1.0000000 )


      isym =  4     180 deg rotation - cart. axis [1,0,0]        

 cryst.   s( 4) = (     0         -1          1      )
                  (     0         -1          0      )
                  (     1         -1          0      )

 cart.    s( 4) = (  1.0000000  0.0000000  0.0000000 )
                  (  0.0000000 -1.0000000  0.0000000 )
                  (  0.0000000  0.0000000 -1.0000000 )


      isym =  5     120 deg rotation - cart. axis [-1,-1,-1]     

 cryst.   s( 5) = (    -1          0          1      )
                  (    -1          1          0      )
                  (    -1          0          0      )

 cart.    s( 5) = (  0.0000000  1.0000000  0.0000000 )
                  (  0.0000000  0.0000000  1.0000000 )
                  (  1.0000000  0.0000000  0.0000000 )


      isym =  6     120 deg rotation - cart. axis [-1,1,1]       

 cryst.   s( 6) = (     0          1          0      )
                  (     0          0          1      )
                  (     1          0          0      )

 cart.    s( 6) = (  0.0000000 -1.0000000  0.0000000 )
                  (  0.0000000  0.0000000  1.0000000 )
                  ( -1.0000000  0.0000000  0.0000000 )


      isym =  7     120 deg rotation - cart. axis [1,1,-1]       

 cryst.   s( 7) = (     1          0         -1      )
                  (     0          0         -1      )
                  (     0          1         -1      )

 cart.    s( 7) = (  0.0000000  1.0000000  0.0000000 )
                  (  0.0000000  0.0000000 -1.0000000 )
                  ( -1.0000000  0.0000000  0.0000000 )


      isym =  8     120 deg rotation - cart. axis [1,-1,1]       

 cryst.   s( 8) = (     0         -1          0      )
                  (     1         -1          0      )
                  (     0         -1          1      )

 cart.    s( 8) = (  0.0000000 -1.0000000  0.0000000 )
                  (  0.0000000  0.0000000 -1.0000000 )
                  (  1.0000000  0.0000000  0.0000000 )


      isym =  9     120 deg rotation - cart. axis [1,1,1]        

 cryst.   s( 9) = (     0          0         -1      )
                  (     0          1         -1      )
                  (     1          0         -1      )

 cart.    s( 9) = (  0.0000000  0.0000000  1.0000000 )
                  (  1.0000000  0.0000000  0.0000000 )
                  (  0.0000000  1.0000000  0.0000000 )


      isym = 10     120 deg rotation - cart. axis [-1,1,-1]      

 cryst.   s(10) = (    -1          1          0      )
                  (    -1          0          0      )
                  (    -1          0          1      )

 cart.    s(10) = (  0.0000000  0.0000000  1.0000000 )
                  ( -1.0000000  0.0000000  0.0000000 )
                  (  0.0000000 -1.0000000  0.0000000 )


      isym = 11     120 deg rotation - cart. axis [1,-1,-1]      

 cryst.   s(11) = (     0          0          1      )
                  (     1          0          0      )
                  (     0          1          0      )

 cart.    s(11) = (  0.0000000  0.0000000 -1.0000000 )
                  ( -1.0000000  0.0000000  0.0000000 )
                  (  0.0000000  1.0000000  0.0000000 )


      isym = 12     120 deg rotation - cart. axis [-1,-1,1]      

 cryst.   s(12) = (     1         -1          0      )
                  (     0         -1          1      )
                  (     0         -1          0      )

 cart.    s(12) = (  0.0000000  0.0000000 -1.0000000 )
                  (  1.0000000  0.0000000  0.0000000 )
                  (  0.0000000 -1.0000000  0.0000000 )


      isym = 13     inv. 180 deg rotation - cart. axis [1,1,0]   

 cryst.   s(13) = (     0          1          0      )
                  (     1          0          0      )
                  (     0          0          1      )

 cart.    s(13) = (  0.0000000 -1.0000000  0.0000000 )
                  ( -1.0000000  0.0000000  0.0000000 )
                  (  0.0000000  0.0000000  1.0000000 )


      isym = 14     inv. 180 deg rotation - cart. axis [1,-1,0]  

 cryst.   s(14) = (     1          0         -1      )
                  (     0          1         -1      )
                  (     0          0         -1      )

 cart.    s(14) = (  0.0000000  1.0000000  0.0000000 )
                  (  1.0000000  0.0000000  0.0000000 )
                  (  0.0000000  0.0000000  1.0000000 )


      isym = 15     inv.  90 deg rotation - cart. axis [0,0,-1]  

 cryst.   s(15) = (     0         -1          0      )
                  (     0         -1          1      )
                  (     1         -1          0      )

 cart.    s(15) = (  0.0000000 -1.0000000  0.0000000 )
                  (  1.0000000  0.0000000  0.0000000 )
                  (  0.0000000  0.0000000 -1.0000000 )


      isym = 16     inv.  90 deg rotation - cart. axis [0,0,1]   

 cryst.   s(16) = (    -1          0          1      )
                  (    -1          0          0      )
                  (    -1          1          0      )

 cart.    s(16) = (  0.0000000  1.0000000  0.0000000 )
                  ( -1.0000000  0.0000000  0.0000000 )
                  (  0.0000000  0.0000000 -1.0000000 )


      isym = 17     inv. 180 deg rotation - cart. axis [1,0,1]   

 cryst.   s(17) = (     1          0          0      )
                  (     0          0          1      )
                  (     0          1          0      )

 cart.    s(17) = (  0.0000000  0.0000000 -1.0000000 )
                  (  0.0000000  1.0000000  0.0000000 )
                  ( -1.0000000  0.0000000  0.0000000 )


      isym = 18     inv. 180 deg rotation - cart. axis [-1,0,1]  

 cryst.   s(18) = (    -1          0          0      )
                  (    -1          1          0      )
                  (    -1          0          1      )

 cart.    s(18) = (  0.0000000  0.0000000  1.0000000 )
                  (  0.0000000  1.0000000  0.0000000 )
                  (  1.0000000  0.0000000  0.0000000 )


      isym = 19     inv.  90 deg rotation - cart. axis [0,1,0]   

 cryst.   s(19) = (     0         -1          1      )
                  (     1         -1          0      )
                  (     0         -1          0      )

 cart.    s(19) = (  0.0000000  0.0000000 -1.0000000 )
                  (  0.0000000 -1.0000000  0.0000000 )
                  (  1.0000000  0.0000000  0.0000000 )


      isym = 20     inv.  90 deg rotation - cart. axis [0,-1,0]  

 cryst.   s(20) = (     0          1         -1      )
                  (     0          0         -1      )
                  (     1          0         -1      )

 cart.    s(20) = (  0.0000000  0.0000000  1.0000000 )
                  (  0.0000000 -1.0000000  0.0000000 )
                  ( -1.0000000  0.0000000  0.0000000 )


      isym = 21     inv. 180 deg rotation - cart. axis [0,1,1]   

 cryst.   s(21) = (     1         -1          0      )
                  (     0         -1          0      )
                  (     0         -1          1      )

 cart.    s(21) = (  1.0000000  0.0000000  0.0000000 )
                  (  0.0000000  0.0000000 -1.0000000 )
                  (  0.0000000 -1.0000000  0.0000000 )


      isym = 22     inv. 180 deg rotation - cart. axis [0,1,-1]  

 cryst.   s(22) = (     0          0          1      )
                  (     0          1          0      )
                  (     1          0          0      )

 cart.    s(22) = (  1.0000000  0.0000000  0.0000000 )
                  (  0.0000000  0.0000000  1.0000000 )
                  (  0.0000000  1.0000000  0.0000000 )


      isym = 23     inv.  90 deg rotation - cart. axis [-1,0,0]  

 cryst.   s(23) = (     0          0         -1      )
                  (     1          0         -1      )
                  (     0          1         -1      )

 cart.    s(23) = ( -1.0000000  0.0000000  0.0000000 )
                  (  0.0000000  0.0000000 -1.0000000 )
                  (  0.0000000  1.0000000  0.0000000 )


      isym = 24     inv.  90 deg rotation - cart. axis [1,0,0]   

 cryst.   s(24) = (    -1          1          0      )
                  (    -1          0          1      )
                  (    -1          0          0      )

 cart.    s(24) = ( -1.0000000  0.0000000  0.0000000 )
                  (  0.0000000  0.0000000  1.0000000 )
                  (  0.0000000 -1.0000000  0.0000000 )


     point group T_d (-43m) 
     there are  5 classes
     the character table:

       E     8C3   3C2   6S4   6s_d 
A_1    1.00  1.00  1.00  1.00  1.00
A_2    1.00  1.00  1.00 -1.00 -1.00
E      2.00 -1.00  2.00  0.00  0.00
T_1    3.00  0.00 -1.00  1.00 -1.00
T_2    3.00  0.00 -1.00 -1.00  1.00

     the symmetry operations in each class and the name of the first element:

     E        1
          identity                                               
     8C3      5    7    8    6   12    9   10   11
          120 deg rotation - cart. axis [-1,-1,-1]               
     3C2      2    3    4
          180 deg rotation - cart. axis [0,0,1]                  
     6S4     15   16   20   19   23   24
          inv.  90 deg rotation - cart. axis [0,0,-1]            
     6s_d    13   14   17   18   21   22
          inv. 180 deg rotation - cart. axis [1,1,0]             

   Cartesian axes

     site n.     atom                  positions (alat units)
         1           Cu  tau(   1) = (   0.0000000   0.0000000   0.0000000  )
         2           Pt  tau(   2) = (   0.5000000   0.5000000   0.5000000  )
         3           Ni  tau(   3) = (   0.2500000   0.2500000   0.2500000  )

   Crystallographic axes

     site n.     atom                  positions (cryst. coord.)
         1           Cu  tau(   1) = (  0.0000000  0.0000000  0.0000000  )
         2           Pt  tau(   2) = ( -0.5000000  1.5000000 -0.5000000  )
         3           Ni  tau(   3) = ( -0.2500000  0.7500000 -0.2500000  )

     number of k points=    29  Methfessel-Paxton smearing, width (Ry)=  0.0050
                       cart. coord. in units 2pi/alat
        k(    1) = (   0.0000000   0.0000000   0.0000000), wk =   0.0039062
        k(    2) = (  -0.1250000   0.1250000  -0.1250000), wk =   0.0312500
        k(    3) = (  -0.2500000   0.2500000  -0.2500000), wk =   0.0312500
        k(    4) = (  -0.3750000   0.3750000  -0.3750000), wk =   0.0312500
        k(    5) = (   0.5000000  -0.5000000   0.5000000), wk =   0.0156250
        k(    6) = (   0.0000000   0.2500000   0.0000000), wk =   0.0234375
        k(    7) = (  -0.1250000   0.3750000  -0.1250000), wk =   0.0937500
        k(    8) = (  -0.2500000   0.5000000  -0.2500000), wk =   0.0937500
        k(    9) = (   0.6250000  -0.3750000   0.6250000), wk =   0.0937500
        k(   10) = (   0.5000000  -0.2500000   0.5000000), wk =   0.0937500
        k(   11) = (   0.3750000  -0.1250000   0.3750000), wk =   0.0937500
        k(   12) = (   0.2500000   0.0000000   0.2500000), wk =   0.0468750
        k(   13) = (   0.0000000   0.5000000   0.0000000), wk =   0.0234375
        k(   14) = (  -0.1250000   0.6250000  -0.1250000), wk =   0.0937500
        k(   15) = (   0.7500000  -0.2500000   0.7500000), wk =   0.0937500
        k(   16) = (   0.6250000  -0.1250000   0.6250000), wk =   0.0937500
        k(   17) = (   0.5000000   0.0000000   0.5000000), wk =   0.0468750
        k(   18) = (   0.0000000   0.7500000   0.0000000), wk =   0.0234375
        k(   19) = (   0.8750000  -0.1250000   0.8750000), wk =   0.0937500
        k(   20) = (   0.7500000   0.0000000   0.7500000), wk =   0.0468750
        k(   21) = (   0.0000000  -1.0000000   0.0000000), wk =   0.0117188
        k(   22) = (  -0.2500000   0.5000000   0.0000000), wk =   0.0937500
        k(   23) = (   0.6250000  -0.3750000   0.8750000), wk =   0.1875000
        k(   24) = (   0.5000000  -0.2500000   0.7500000), wk =   0.0937500
        k(   25) = (   0.7500000  -0.2500000   1.0000000), wk =   0.0937500
        k(   26) = (   0.6250000  -0.1250000   0.8750000), wk =   0.1875000
        k(   27) = (   0.5000000   0.0000000   0.7500000), wk =   0.0937500
        k(   28) = (  -0.2500000  -1.0000000   0.0000000), wk =   0.0468750
        k(   29) = (  -0.5000000  -1.0000000   0.0000000), wk =   0.0234375

                       cryst. coord.
        k(    1) = (   0.0000000   0.0000000   0.0000000), wk =   0.0039062
        k(    2) = (   0.0000000   0.0000000   0.1250000), wk =   0.0312500
        k(    3) = (   0.0000000   0.0000000   0.2500000), wk =   0.0312500
        k(    4) = (   0.0000000   0.0000000   0.3750000), wk =   0.0312500
        k(    5) = (   0.0000000   0.0000000  -0.5000000), wk =   0.0156250
        k(    6) = (   0.0000000   0.1250000   0.1250000), wk =   0.0234375
        k(    7) = (   0.0000000   0.1250000   0.2500000), wk =   0.0937500
        k(    8) = (   0.0000000   0.1250000   0.3750000), wk =   0.0937500
        k(    9) = (   0.0000000   0.1250000  -0.5000000), wk =   0.0937500
        k(   10) = (   0.0000000   0.1250000  -0.3750000), wk =   0.0937500
        k(   11) = (   0.0000000   0.1250000  -0.2500000), wk =   0.0937500
        k(   12) = (   0.0000000   0.1250000  -0.1250000), wk =   0.0468750
        k(   13) = (   0.0000000   0.2500000   0.2500000), wk =   0.0234375
        k(   14) = (   0.0000000   0.2500000   0.3750000), wk =   0.0937500
        k(   15) = (   0.0000000   0.2500000  -0.5000000), wk =   0.0937500
        k(   16) = (   0.0000000   0.2500000  -0.3750000), wk =   0.0937500
        k(   17) = (   0.0000000   0.2500000  -0.2500000), wk =   0.0468750
        k(   18) = (   0.0000000   0.3750000   0.3750000), wk =   0.0234375
        k(   19) = (   0.0000000   0.3750000  -0.5000000), wk =   0.0937500
        k(   20) = (   0.0000000   0.3750000  -0.3750000), wk =   0.0468750
        k(   21) = (   0.0000000  -0.5000000  -0.5000000), wk =   0.0117188
        k(   22) = (   0.1250000   0.2500000   0.3750000), wk =   0.0937500
        k(   23) = (   0.1250000   0.2500000  -0.5000000), wk =   0.1875000
        k(   24) = (   0.1250000   0.2500000  -0.3750000), wk =   0.0937500
        k(   25) = (   0.1250000   0.3750000  -0.5000000), wk =   0.0937500
        k(   26) = (   0.1250000   0.3750000  -0.3750000), wk =   0.1875000
        k(   27) = (   0.1250000   0.3750000  -0.2500000), wk =   0.0937500
        k(   28) = (   0.1250000  -0.5000000  -0.3750000), wk =   0.0468750
        k(   29) = (   0.2500000  -0.5000000  -0.2500000), wk =   0.0234375

     Dense  grid:    14211 G-vectors     FFT dimensions: (  36,  36,  36)

     Dynamical RAM for                 wfc:       0.81 MB

     Dynamical RAM for     wfc (w. buffer):      24.42 MB

     Dynamical RAM for           str. fact:       0.65 MB

     Dynamical RAM for           local pot:       0.00 MB

     Dynamical RAM for          nlocal pot:       1.47 MB

     Dynamical RAM for                qrad:       3.41 MB

     Dynamical RAM for          rho,v,vnew:       1.72 MB

     Dynamical RAM for               rhoin:       0.57 MB

     Dynamical RAM for            rho*nmix:       3.47 MB

     Dynamical RAM for           G-vectors:       0.92 MB

     Dynamical RAM for          h,s,v(r/c):       0.16 MB

     Dynamical RAM for          <psi|beta>:       0.02 MB

     Dynamical RAM for                 psi:       1.63 MB

     Dynamical RAM for                hpsi:       1.63 MB

     Dynamical RAM for                spsi:       1.63 MB

     Dynamical RAM for      wfcinit/wfcrot:       1.65 MB

     Dynamical RAM for           addusdens:      40.55 MB

     Estimated static dynamical RAM per process >      39.27 MB

     Estimated max dynamical RAM per process >      79.82 MB

     Check: negative core charge=   -0.000003

     Initial potential from superposition of free atoms

     starting charge   30.99935, renormalised to   31.00000
     Starting wfcs are   27 randomized atomic wfcs +    3 random wfcs
     Checking if some PAW data can be deallocated... 

     total cpu time spent up to now is        2.3 secs

     Self-consistent Calculation

     iteration #  1     ecut=    50.00 Ry     beta= 0.70
     Davidson diagonalization with overlap
     ethr =  1.00E-02,  avg # of iterations =  6.0

     total cpu time spent up to now is        6.9 secs

     total energy              =   -1144.66732290 Ry
     estimated scf accuracy    <       1.80012033 Ry

     iteration #  2     ecut=    50.00 Ry     beta= 0.70
     Davidson diagonalization with overlap
     ethr =  5.81E-03,  avg # of iterations =  2.3

     total cpu time spent up to now is       10.9 secs

     total energy              =   -1142.65057685 Ry
     estimated scf accuracy    <      45.40435843 Ry

     iteration #  3     ecut=    50.00 Ry     beta= 0.70
     Davidson diagonalization with overlap
     ethr =  5.81E-03,  avg # of iterations =  2.0

     total cpu time spent up to now is       14.5 secs

     total energy              =   -1145.98010998 Ry
     estimated scf accuracy    <       0.37186381 Ry

     iteration #  4     ecut=    50.00 Ry     beta= 0.70
     Davidson diagonalization with overlap
     ethr =  1.20E-03,  avg # of iterations =  1.2

     total cpu time spent up to now is       17.7 secs

     total energy              =   -1146.02800681 Ry
     estimated scf accuracy    <       0.02889059 Ry

     iteration #  5     ecut=    50.00 Ry     beta= 0.70
     Davidson diagonalization with overlap
     ethr =  9.32E-05,  avg # of iterations =  3.7

     total cpu time spent up to now is       21.5 secs

     total energy              =   -1146.02920699 Ry
     estimated scf accuracy    <       0.01481585 Ry

     iteration #  6     ecut=    50.00 Ry     beta= 0.70
     Davidson diagonalization with overlap
     ethr =  4.78E-05,  avg # of iterations =  2.2

     total cpu time spent up to now is       24.8 secs

     total energy              =   -1146.03185237 Ry
     estimated scf accuracy    <       0.00292754 Ry

     iteration #  7     ecut=    50.00 Ry     beta= 0.70
     Davidson diagonalization with overlap
     ethr =  9.44E-06,  avg # of iterations =  5.1

     total cpu time spent up to now is       28.6 secs

     total energy              =   -1146.03208109 Ry
     estimated scf accuracy    <       0.00146635 Ry

     iteration #  8     ecut=    50.00 Ry     beta= 0.70
     Davidson diagonalization with overlap
     ethr =  4.73E-06,  avg # of iterations =  2.6

     total cpu time spent up to now is       32.0 secs

     total energy              =   -1146.03225744 Ry
     estimated scf accuracy    <       0.00001624 Ry

     iteration #  9     ecut=    50.00 Ry     beta= 0.70
     Davidson diagonalization with overlap
     ethr =  5.24E-08,  avg # of iterations =  5.4

     total cpu time spent up to now is       37.2 secs

     total energy              =   -1146.03229426 Ry
     estimated scf accuracy    <       0.00000756 Ry

     iteration # 10     ecut=    50.00 Ry     beta= 0.70
     Davidson diagonalization with overlap
     ethr =  2.44E-08,  avg # of iterations =  1.3

     total cpu time spent up to now is       40.5 secs

     total energy              =   -1146.03229355 Ry
     estimated scf accuracy    <       0.00000432 Ry

     iteration # 11     ecut=    50.00 Ry     beta= 0.70
     Davidson diagonalization with overlap
     ethr =  1.39E-08,  avg # of iterations =  1.2

     total cpu time spent up to now is       43.7 secs

     total energy              =   -1146.03229380 Ry
     estimated scf accuracy    <       0.00000028 Ry

     iteration # 12     ecut=    50.00 Ry     beta= 0.70
     Davidson diagonalization with overlap
     ethr =  9.11E-10,  avg # of iterations =  2.4

     total cpu time spent up to now is       47.4 secs

     End of self-consistent calculation

          k = 0.0000 0.0000 0.0000 (  1807 PWs)   bands (ev):

     3.5686   7.4496   7.4496   7.9592   7.9592   7.9592   9.2803   9.2803
     9.2803  10.7890  10.7890  11.0903  11.0903  11.0903  11.6811  11.6811
    19.6628  19.6628  19.6628  21.9356  22.0800  22.7261  22.7261  22.7261
    24.9021  24.9021  24.9021  29.9079  29.9079  30.6165

     occupation numbers 
     1.0000   1.0000   1.0000   1.0000   1.0000   1.0000   1.0000   1.0000
     1.0000   1.0000   1.0000   1.0000   1.0000   1.0000   1.0192   1.0192
    -0.0000  -0.0000  -0.0000  -0.0000  -0.0000  -0.0000  -0.0000  -0.0000
    -0.0000  -0.0000  -0.0000  -0.0000  -0.0000  -0.0000

          k =-0.1250 0.1250-0.1250 (  1796 PWs)   bands (ev):

     3.8205   7.5208   7.5208   7.9096   8.0307   8.0307   9.2547   9.2547
     9.3552  10.6773  10.6773  10.8420  11.0451  11.0451  11.6941  11.6941
    17.7937  19.6104  19.6104  21.5353  22.5193  22.5193  22.6548  23.3906
    25.0712  25.0712  26.3082  30.5787  30.5787  31.8151

     occupation numbers 
     1.0000   1.0000   1.0000   1.0000   1.0000   1.0000   1.0000   1.0000
     1.0000   1.0000   1.0000   1.0000   1.0000   1.0000   1.0279   1.0279
    -0.0000  -0.0000  -0.0000  -0.0000  -0.0000  -0.0000  -0.0000  -0.0000
    -0.0000  -0.0000  -0.0000  -0.0000  -0.0000  -0.0000

          k =-0.2500 0.2500-0.2500 (  1799 PWs)   bands (ev):

     4.5416   7.7216   7.7216   7.8489   8.2059   8.2059   9.1980   9.1980
     9.4375  10.2537  10.3295  10.3295  11.0299  11.0299  11.6803  11.6803
    15.1835  19.4345  19.4345  20.9623  22.0153  22.0153  22.7666  24.8595
    25.8807  25.8807  29.5793  32.1006  32.1006  34.6596

     occupation numbers 
     1.0000   1.0000   1.0000   1.0000   1.0000   1.0000   1.0000   1.0000
     1.0000   1.0000   1.0000   1.0000   1.0000   1.0000   1.0187   1.0187
    -0.0000  -0.0000  -0.0000  -0.0000  -0.0000  -0.0000  -0.0000  -0.0000
    -0.0000  -0.0000  -0.0000  -0.0000  -0.0000  -0.0000

          k =-0.3750 0.3750-0.3750 (  1784 PWs)   bands (ev):

     5.5807   7.8504   7.9876   7.9876   8.3838   8.3838   9.0252   9.1613
     9.1613   9.9011   9.9011   9.9417  11.0659  11.0659  11.6197  11.6197
    13.1374  19.1822  19.1822  20.5597  21.6217  21.6217  22.6855  27.1579
    27.2850  27.2850  32.4000  32.4000  33.0013  34.8196

     occupation numbers 
     1.0000   1.0000   1.0000   1.0000   1.0000   1.0000   1.0000   1.0000
     1.0000   1.0000   1.0000   1.0000   1.0000   1.0000   1.0008   1.0008
    -0.0000  -0.0000  -0.0000  -0.0000  -0.0000  -0.0000  -0.0000  -0.0000
    -0.0000  -0.0000  -0.0000  -0.0000  -0.0000  -0.0000

          k = 0.5000-0.5000 0.5000 (  1772 PWs)   bands (ev):

     6.2952   7.7913   8.1328   8.1328   8.4573   8.4573   8.5721   9.1690
     9.1690   9.6719   9.6719   9.9364  11.0941  11.0941  11.5786  11.5786
    12.3250  19.0560  19.0560  20.4205  21.4952  21.4952  22.6490  28.3875
    28.3875  29.3104  31.1381  31.1381  31.4045  35.9916

     occupation numbers 
     1.0000   1.0000   1.0000   1.0000   1.0000   1.0000   1.0000   1.0000
     1.0000   1.0000   1.0000   1.0000   1.0000   1.0000   1.0000   1.0000
    -0.0000  -0.0000  -0.0000  -0.0000  -0.0000  -0.0000  -0.0000  -0.0000
    -0.0000  -0.0000  -0.0000  -0.0000  -0.0000  -0.0000

          k = 0.0000 0.2500 0.0000 (  1796 PWs)   bands (ev):

     3.9026   7.5075   7.5588   7.8696   8.0656   8.0656   9.1489   9.3585
     9.3585  10.5340  10.7672  10.9746  10.9746  10.9816  11.5971  11.7462
    18.5563  18.5563  18.9101  20.8170  21.8315  23.2702  23.2702  24.0949
    25.2188  26.1538  26.1538  29.7876  30.2435  33.0434

     occupation numbers 
     1.0000   1.0000   1.0000   1.0000   1.0000   1.0000   1.0000   1.0000
     1.0000   1.0000   1.0000   1.0000   1.0000   1.0000   1.0001   0.9694
    -0.0000  -0.0000  -0.0000  -0.0000  -0.0000  -0.0000  -0.0000  -0.0000
    -0.0000  -0.0000  -0.0000  -0.0000  -0.0000  -0.0000

          k =-0.1250 0.3750-0.1250 (  1792 PWs)   bands (ev):

     4.4619   7.5710   7.7257   7.8182   8.2023   8.2367   8.9685   9.4082
     9.4560  10.2934  10.5403  10.5895  10.9626  11.0235  11.5301  11.7607
    16.1072  17.8368  19.2458  19.8953  21.8852  23.3979  23.5428  24.9252
    26.1705  27.0696  28.5714  30.4055  31.3703  35.5930

     occupation numbers 
     1.0000   1.0000   1.0000   1.0000   1.0000   1.0000   1.0000   1.0000
     1.0000   1.0000   1.0000   1.0000   1.0000   1.0000   1.0000   0.8779
    -0.0000  -0.0000  -0.0000  -0.0000  -0.0000  -0.0000  -0.0000  -0.0000
    -0.0000  -0.0000  -0.0000  -0.0000  -0.0000  -0.0000

          k =-0.2500 0.5000-0.2500 (  1774 PWs)   bands (ev):

     5.3966   7.6285   7.8558   7.9691   8.3650   8.4941   8.8371   9.3822
     9.3958   9.9829  10.0850  10.1867  11.0261  11.0491  11.5016  11.7251
    13.7539  17.5680  18.2727  19.9997  22.5096  23.3008  23.9639  24.7616
    28.0749  28.1613  31.2198  31.7915  33.2365  34.1031

     occupation numbers 
     1.0000   1.0000   1.0000   1.0000   1.0000   1.0000   1.0000   1.0000
     1.0000   1.0000   1.0000   1.0000   1.0000   1.0000   1.0000   1.0286
    -0.0000  -0.0000  -0.0000  -0.0000  -0.0000  -0.0000  -0.0000  -0.0000
    -0.0000  -0.0000  -0.0000  -0.0000  -0.0000  -0.0000

          k = 0.6250-0.3750 0.6250 (  1777 PWs)   bands (ev):

     6.3405   7.5095   7.9712   8.1395   8.4771   8.5181   8.9683   9.1639
     9.3097   9.6676   9.7765  10.0494  11.0346  11.1079  11.5863  11.6085
    12.3891  17.4211  17.8210  20.0720  22.5921  22.8586  24.3255  26.2775
    28.5727  29.4235  30.9873  31.2758  33.8212  34.8233

     occupation numbers 
     1.0000   1.0000   1.0000   1.0000   1.0000   1.0000   1.0000   1.0000
     1.0000   1.0000   1.0000   1.0000   1.0000   1.0000   1.0001   1.0004
    -0.0000  -0.0000  -0.0000  -0.0000  -0.0000  -0.0000  -0.0000  -0.0000
    -0.0000  -0.0000  -0.0000  -0.0000  -0.0000  -0.0000

          k = 0.5000-0.2500 0.5000 (  1782 PWs)   bands (ev):

     6.0747   7.6200   7.9768   8.0786   8.5185   8.5536   8.8625   9.0753
     9.3646   9.7138   9.8260  10.0804  11.0126  11.1323  11.4708  11.7208
    12.7317  16.9450  18.6036  20.2870  22.4052  22.5172  24.4890  26.8263
    26.8373  28.9972  31.4065  32.8429  32.8793  34.6120

     occupation numbers 
     1.0000   1.0000   1.0000   1.0000   1.0000   1.0000   1.0000   1.0000
     1.0000   1.0000   1.0000   1.0000   1.0000   1.0000   1.0000   1.0327
    -0.0000  -0.0000  -0.0000  -0.0000  -0.0000  -0.0000  -0.0000  -0.0000
    -0.0000  -0.0000  -0.0000  -0.0000  -0.0000  -0.0000

          k = 0.3750-0.1250 0.3750 (  1789 PWs)   bands (ev):

     5.0576   7.7286   7.8075   7.8443   8.3667   8.4120   9.0142   9.1710
     9.4329  10.0688  10.0950  10.3240  11.0116  11.0688  11.4581  11.7947
    14.5288  16.9135  19.8054  20.7768  21.8538  22.4165  24.0638  25.2127
    25.4739  28.9226  30.3263  31.4081  32.9634  34.1391

     occupation numbers 
     1.0000   1.0000   1.0000   1.0000   1.0000   1.0000   1.0000   1.0000
     1.0000   1.0000   1.0000   1.0000   1.0000   1.0000   1.0000   0.5131
    -0.0000  -0.0000  -0.0000  -0.0000  -0.0000  -0.0000  -0.0000  -0.0000
    -0.0000  -0.0000  -0.0000  -0.0000  -0.0000  -0.0000

          k = 0.2500 0.0000 0.2500 (  1797 PWs)   bands (ev):

     4.2275   7.6234   7.6279   7.8188   8.1417   8.1813   9.1203   9.3336
     9.3924  10.4311  10.4541  10.6877  10.9969  11.0330  11.5664  11.7797
    16.7873  17.5551  20.6884  21.4317  21.6164  22.0628  23.0931  24.5766
    24.6697  27.2985  27.7714  29.9186  32.2034  33.6397

     occupation numbers 
     1.0000   1.0000   1.0000   1.0000   1.0000   1.0000   1.0000   1.0000
     1.0000   1.0000   1.0000   1.0000   1.0000   1.0000   1.0000   0.6936
    -0.0000  -0.0000  -0.0000  -0.0000  -0.0000  -0.0000  -0.0000  -0.0000
    -0.0000  -0.0000  -0.0000  -0.0000  -0.0000  -0.0000

          k = 0.0000 0.5000 0.0000 (  1812 PWs)   bands (ev):

     4.8308   7.4209   7.7892   7.8531   8.2967   8.2967   8.7302   9.5692
     9.5692  10.2663  10.6870  10.8280  10.8280  10.9121  11.3891  11.7422
    16.5737  16.5737  17.5457  18.3467  21.3488  24.8074  24.8074  27.3924
    27.6762  28.4896  28.4896  29.4707  30.3357  35.4837

     occupation numbers 
     1.0000   1.0000   1.0000   1.0000   1.0000   1.0000   1.0000   1.0000
     1.0000   1.0000   1.0000   1.0000   1.0000   1.0000   1.0000   0.9867
    -0.0000  -0.0000  -0.0000  -0.0000  -0.0000  -0.0000  -0.0000  -0.0000
    -0.0000  -0.0000  -0.0000  -0.0000  -0.0000  -0.0000

          k =-0.1250 0.6250-0.1250 (  1772 PWs)   bands (ev):

     5.5681   7.3619   7.6728   8.0534   8.4282   8.4538   8.6867   9.5976
     9.6201  10.1997  10.3990  10.5992  10.9188  11.0330  11.3814  11.7435
    14.4936  15.9091  16.2553  18.9997  21.7338  25.1350  25.3071  27.5851
    29.2756  29.3343  30.0632  30.6092  32.2140  34.0405

     occupation numbers 
     1.0000   1.0000   1.0000   1.0000   1.0000   1.0000   1.0000   1.0000
     1.0000   1.0000   1.0000   1.0000   1.0000   1.0000   1.0000   0.9813
    -0.0000  -0.0000  -0.0000  -0.0000  -0.0000  -0.0000  -0.0000  -0.0000
    -0.0000  -0.0000  -0.0000  -0.0000  -0.0000  -0.0000

          k = 0.7500-0.2500 0.7500 (  1776 PWs)   bands (ev):

     6.4515   7.2727   7.6446   8.1838   8.3623   8.6348   8.9862   9.4763
     9.7033   9.9161  10.0154  10.4265  10.8834  11.1767  11.6102  11.7202
    12.5997  15.2361  16.0247  19.5757  23.1946  24.9152  25.0571  27.3196
    28.9587  29.7229  30.8234  31.8264  33.5680  34.6433

     occupation numbers 
     1.0000   1.0000   1.0000   1.0000   1.0000   1.0000   1.0000   1.0000
     1.0000   1.0000   1.0000   1.0000   1.0000   1.0000   1.0004   1.0331
    -0.0000  -0.0000  -0.0000  -0.0000  -0.0000  -0.0000  -0.0000  -0.0000
    -0.0000  -0.0000  -0.0000  -0.0000  -0.0000  -0.0000

          k = 0.6250-0.1250 0.6250 (  1778 PWs)   bands (ev):

     6.6724   7.3061   7.8453   8.1726   8.1998   8.8011   9.1358   9.2721
     9.5233   9.7093  10.0147  10.1963  10.8944  11.1094  11.6173  11.7902
    12.5573  14.5724  16.8880  19.8818  24.0931  24.6299  25.5305  26.7697
    26.8126  28.4704  31.9088  32.7036  34.3291  35.0453

     occupation numbers 
     1.0000   1.0000   1.0000   1.0000   1.0000   1.0000   1.0000   1.0000
     1.0000   1.0000   1.0000   1.0000   1.0000   1.0000   1.0007   0.5677
    -0.0000  -0.0000  -0.0000  -0.0000  -0.0000  -0.0000  -0.0000  -0.0000
    -0.0000  -0.0000  -0.0000  -0.0000  -0.0000  -0.0000

          k = 0.5000 0.0000 0.5000 (  1780 PWs)   bands (ev):

     5.8840   7.5967   7.8174   8.0370   8.5058   8.6693   8.9540   9.0244
     9.4871   9.7532  10.0131  10.2754  10.9525  11.1157  11.3911  11.8416
    14.0862  14.6018  18.2686  20.2395  23.6878  23.8120  24.2835  25.2225
    27.6507  28.7863  30.5521  32.7292  33.3515  34.4721

     occupation numbers 
     1.0000   1.0000   1.0000   1.0000   1.0000   1.0000   1.0000   1.0000
     1.0000   1.0000   1.0000   1.0000   1.0000   1.0000   1.0000   0.0492
    -0.0000  -0.0000  -0.0000  -0.0000  -0.0000  -0.0000  -0.0000  -0.0000
    -0.0000  -0.0000  -0.0000  -0.0000  -0.0000  -0.0000

          k = 0.0000 0.7500 0.0000 (  1760 PWs)   bands (ev):

     6.0078   7.1690   7.5539   8.2162   8.4860   8.4860   8.6761   9.6624
     9.6624  10.3253  10.5223  10.8090  11.1808  11.1808  11.1964  11.7827
    14.5144  14.7103  14.7103  18.1366  21.1804  27.0635  27.0635  29.1187
    30.0469  30.3671  30.6773  30.6773  32.1350  33.8736

     occupation numbers 
     1.0000   1.0000   1.0000   1.0000   1.0000   1.0000   1.0000   1.0000
     1.0000   1.0000   1.0000   1.0000   1.0000   1.0000   1.0000   0.6588
    -0.0000  -0.0000  -0.0000  -0.0000  -0.0000  -0.0000  -0.0000  -0.0000
    -0.0000  -0.0000  -0.0000  -0.0000  -0.0000  -0.0000

          k = 0.8750-0.1250 0.8750 (  1770 PWs)   bands (ev):

     6.5229   7.0724   7.5957   8.2926   8.3791   8.6407   8.8562   9.5516
     9.7792  10.2999  10.3900  10.7131  10.8495  11.5353  11.6567  11.9359
    13.0109  13.6850  14.4634  18.7660  21.6095  27.2898  27.3533  29.0904
    29.4696  30.5708  31.1724  32.2322  33.1366  33.2293

     occupation numbers 
     1.0000   1.0000   1.0000   1.0000   1.0000   1.0000   1.0000   1.0000
     1.0000   1.0000   1.0000   1.0000   1.0000   1.0000   1.0069  -0.0066
    -0.0000  -0.0000  -0.0000  -0.0000  -0.0000  -0.0000  -0.0000  -0.0000
    -0.0000  -0.0000  -0.0000  -0.0000  -0.0000  -0.0000

          k = 0.7500 0.0000 0.7500 (  1780 PWs)   bands (ev):

     6.9119   7.0706   7.7891   8.0261   8.2432   8.8707   9.0378   9.3491
     9.9173  10.0944  10.1531  10.5535  10.7685  11.4555  11.8065  11.8131
    12.5400  13.0820  15.3592  19.4728  23.1446  26.7610  26.8362  26.9448
    27.2249  30.8150  31.7018  32.2181  33.7830  34.4541

     occupation numbers 
     1.0000   1.0000   1.0000   1.0000   1.0000   1.0000   1.0000   1.0000
     1.0000   1.0000   1.0000   1.0000   1.0000   1.0000   0.3676   0.2914
    -0.0000  -0.0000  -0.0000  -0.0000  -0.0000  -0.0000  -0.0000  -0.0000
    -0.0000  -0.0000  -0.0000  -0.0000  -0.0000  -0.0000

          k = 0.0000-1.0000 0.0000 (  1772 PWs)   bands (ev):

     6.5490   6.9299   7.6713   8.4021   8.5545   8.5545   8.7722   9.6268
     9.6268  10.4038  10.4177  10.7215  11.1308  11.7289  11.7289  12.1610
    12.7706  13.6929  13.6929  18.1026  21.1412  28.9637  29.0539  29.0539
    30.2032  30.9578  30.9578  32.2780  32.3538  32.3538

     occupation numbers 
     1.0000   1.0000   1.0000   1.0000   1.0000   1.0000   1.0000   1.0000
     1.0000   1.0000   1.0000   1.0000   1.0000   1.0232   1.0232  -0.0000
    -0.0000  -0.0000  -0.0000  -0.0000  -0.0000  -0.0000  -0.0000  -0.0000
    -0.0000  -0.0000  -0.0000  -0.0000  -0.0000  -0.0000

          k =-0.2500 0.5000 0.0000 (  1779 PWs)   bands (ev):

     5.1231   7.5385   7.7575   7.9374   8.3667   8.4320   8.7712   9.4271
     9.5214  10.1745  10.2349  10.4661  10.9786  11.0422  11.3993  11.7890
    15.2592  15.8598  18.1114  20.3979  22.0520  22.9211  24.9886  25.8881
    26.7400  29.4564  30.0766  30.3577  32.1585  34.1588

     occupation numbers 
     1.0000   1.0000   1.0000   1.0000   1.0000   1.0000   1.0000   1.0000
     1.0000   1.0000   1.0000   1.0000   1.0000   1.0000   1.0000   0.5836
    -0.0000  -0.0000  -0.0000  -0.0000  -0.0000  -0.0000  -0.0000  -0.0000
    -0.0000  -0.0000  -0.0000  -0.0000  -0.0000  -0.0000

          k = 0.6250-0.3750 0.8750 (  1781 PWs)   bands (ev):

     6.0451   7.4952   7.7037   8.1518   8.4917   8.5349   8.9166   9.3014
     9.5654   9.8118  10.0024  10.2994  10.9286  11.1484  11.4484  11.7828
    13.2992  15.4801  16.9416  20.9573  22.2221  23.6327  25.3331  26.5075
    27.8845  29.0547  31.1135  32.1360  33.4432  34.0508

     occupation numbers 
     1.0000   1.0000   1.0000   1.0000   1.0000   1.0000   1.0000   1.0000
     1.0000   1.0000   1.0000   1.0000   1.0000   1.0000   1.0000   0.6574
    -0.0000  -0.0000  -0.0000  -0.0000  -0.0000  -0.0000  -0.0000  -0.0000
    -0.0000  -0.0000  -0.0000  -0.0000  -0.0000  -0.0000

          k = 0.5000-0.2500 0.7500 (  1776 PWs)   bands (ev):

     6.7050   7.2427   7.8009   8.1532   8.4749   8.6020   9.1747   9.2161
     9.5196   9.6531   9.9625  10.1745  10.9005  11.2426  11.5752  11.7326
    12.2560  15.6814  16.2784  20.9845  22.1382  25.1018  25.4606  26.4255
    27.1758  29.5876  30.7122  33.8437  33.9999  34.3287

     occupation numbers 
     1.0000   1.0000   1.0000   1.0000   1.0000   1.0000   1.0000   1.0000
     1.0000   1.0000   1.0000   1.0000   1.0000   1.0000   1.0000   1.0159
    -0.0000  -0.0000  -0.0000  -0.0000  -0.0000  -0.0000  -0.0000  -0.0000
    -0.0000  -0.0000  -0.0000  -0.0000  -0.0000  -0.0000

          k = 0.7500-0.2500 1.0000 (  1771 PWs)   bands (ev):

     6.2444   7.2906   7.5256   8.1959   8.4206   8.6070   8.8294   9.5541
     9.7133  10.1504  10.2656  10.5226  10.8501  11.2498  11.5244  11.7993
    13.8444  14.2565  15.0996  19.7737  21.9616  24.6281  27.2568  28.4739
    29.2391  29.4548  30.5449  32.2122  33.0293  33.9448

     occupation numbers 
     1.0000   1.0000   1.0000   1.0000   1.0000   1.0000   1.0000   1.0000
     1.0000   1.0000   1.0000   1.0000   1.0000   1.0000   1.0000   0.4553
    -0.0000  -0.0000  -0.0000  -0.0000  -0.0000  -0.0000  -0.0000  -0.0000
    -0.0000  -0.0000  -0.0000  -0.0000  -0.0000  -0.0000

          k = 0.6250-0.1250 0.8750 (  1777 PWs)   bands (ev):

     6.8529   7.1829   7.6318   8.0219   8.4441   8.8185   9.0199   9.4152
     9.6931  10.0091  10.1147  10.4658  10.7922  11.5542  11.7942  11.9081
    12.3573  13.8663  14.6885  20.7119  23.2107  24.1021  26.2037  27.7137
    29.5965  29.9787  31.0162  32.6820  33.4805  33.8349

     occupation numbers 
     1.0000   1.0000   1.0000   1.0000   1.0000   1.0000   1.0000   1.0000
     1.0000   1.0000   1.0000   1.0000   1.0000   1.0000   0.5193  -0.0207
    -0.0000  -0.0000  -0.0000  -0.0000  -0.0000  -0.0000  -0.0000  -0.0000
    -0.0000  -0.0000  -0.0000  -0.0000  -0.0000  -0.0000

          k = 0.5000 0.0000 0.7500 (  1773 PWs)   bands (ev):

     6.7259   7.3163   7.6629   8.0415   8.4919   8.7911   9.0641   9.2729
     9.5225   9.9559  10.0527  10.3359  10.8202  11.2614  11.6550  11.8476
    13.1773  13.4898  15.6322  21.2548  23.0691  24.0704  25.7899  27.1754
    28.1170  30.0116  30.4798  33.1150  33.5477  35.1296

     occupation numbers 
     1.0000   1.0000   1.0000   1.0000   1.0000   1.0000   1.0000   1.0000
     1.0000   1.0000   1.0000   1.0000   1.0000   1.0000   1.0064   0.0203
    -0.0000  -0.0000  -0.0000  -0.0000  -0.0000  -0.0000  -0.0000  -0.0000
    -0.0000  -0.0000  -0.0000  -0.0000  -0.0000  -0.0000

          k =-0.2500-1.0000 0.0000 (  1774 PWs)   bands (ev):

     6.7359   7.0683   7.6902   8.1310   8.3601   8.7936   8.9069   9.5402
     9.8633  10.2711  10.3485  10.4644  10.7797  11.7630  11.8467  12.2561
    12.6573  13.3339  13.6232  19.5986  21.9083  26.5641  26.7562  29.5503
    29.6856  30.5974  31.6481  32.0430  33.1124  33.6795

     occupation numbers 
     1.0000   1.0000   1.0000   1.0000   1.0000   1.0000   1.0000   1.0000
     1.0000   1.0000   1.0000   1.0000   1.0000   0.8598   0.0241  -0.0000
    -0.0000  -0.0000  -0.0000  -0.0000  -0.0000  -0.0000  -0.0000  -0.0000
    -0.0000  -0.0000  -0.0000  -0.0000  -0.0000  -0.0000

          k =-0.5000-1.0000 0.0000 (  1768 PWs)   bands (ev):

     6.9317   7.3317   7.7052   7.7171   8.7009   8.8581   8.9772   9.4506
     9.4667  10.0278  10.1396  10.5443  10.7844  11.7720  11.9457  12.5828
    12.6672  12.6694  13.5905  22.7553  22.8473  23.4942  24.4234  29.7709
    30.1224  30.5257  31.9668  32.0110  32.2968  32.9568

     occupation numbers 
     1.0000   1.0000   1.0000   1.0000   1.0000   1.0000   1.0000   1.0000
     1.0000   1.0000   1.0000   1.0000   1.0000   0.7756  -0.0039  -0.0000
    -0.0000  -0.0000  -0.0000  -0.0000  -0.0000  -0.0000  -0.0000  -0.0000
    -0.0000  -0.0000  -0.0000  -0.0000  -0.0000  -0.0000

     the Fermi energy is    11.7957 ev

!    total energy              =   -1146.03229386 Ry

     total all-electron energy =    -43178.991673 Ry
     estimated scf accuracy    <          2.0E-09 Ry
     smearing contrib. (-TS)   =      -0.00044266 Ry
     internal energy E=F+TS    =   -1146.03185120 Ry

     The total energy is F=E-TS. E is the sum of the following terms:
     one-electron contribution =     -51.39658853 Ry
     hartree contribution      =      68.42961525 Ry
     xc contribution           =    -110.20888921 Ry
     ewald contribution        =    -193.23538378 Ry
     one-center paw contrib.   =    -859.62060493 Ry
      -> PAW hartree energy AE =     232.83175177 Ry
      -> PAW hartree energy PS =    -231.76466333 Ry
      -> PAW xc energy AE      =    -970.87231601 Ry
      -> PAW xc energy PS      =     110.18462263 Ry
      -> total E_H with PAW    =      69.49670369 Ry
      -> total E_XC with PAW   =    -970.89658258 Ry

     convergence has been achieved in  12 iterations

     Writing output data file ././CuPtNi.save/

     init_run     :      2.89s CPU      2.08s WALL (       1 calls)
     electrons    :     74.58s CPU     45.07s WALL (       1 calls)

     Called by init_run:
     wfcinit      :      1.73s CPU      0.98s WALL (       1 calls)
     wfcinit:atom :      0.04s CPU      0.02s WALL (      29 calls)
     wfcinit:wfcr :      1.60s CPU      0.92s WALL (      29 calls)
     potinit      :      0.34s CPU      0.36s WALL (       1 calls)
     hinit0       :      0.69s CPU      0.65s WALL (       1 calls)

     Called by electrons:
     c_bands      :     56.15s CPU     32.17s WALL (      12 calls)
     sum_band     :     12.28s CPU      7.42s WALL (      12 calls)
     v_of_rho     :      0.37s CPU      0.25s WALL (      13 calls)
     v_h          :      0.02s CPU      0.01s WALL (      13 calls)
     v_xc         :      0.35s CPU      0.24s WALL (      13 calls)
     newd         :      1.20s CPU      1.01s WALL (      13 calls)
     PAW_pot      :      4.90s CPU      4.56s WALL (      13 calls)
     mix_rho      :      0.06s CPU      0.03s WALL (      12 calls)

     Called by c_bands:
     init_us_2    :      1.21s CPU      0.62s WALL (     725 calls)
     cegterg      :     51.67s CPU     29.62s WALL (     348 calls)

     Called by sum_band:
     sum_band:wei :      0.03s CPU      0.01s WALL (      12 calls)
     sum_band:loo :      9.99s CPU      6.22s WALL (      12 calls)
     sum_band:buf :      0.06s CPU      0.03s WALL (     348 calls)
     sum_band:ini :      0.53s CPU      0.29s WALL (     348 calls)
     sum_band:cal :      0.32s CPU      0.26s WALL (     348 calls)
     sum_band:bec :      0.01s CPU      0.00s WALL (     348 calls)
     addusdens    :      2.20s CPU      1.15s WALL (      12 calls)
     addusd:skk   :      0.00s CPU      0.00s WALL (      36 calls)
     addusd:dgemm :      1.21s CPU      0.46s WALL (      36 calls)
     addusd:qvan2 :      0.82s CPU      0.53s WALL (      36 calls)

     Called by *egterg:
     cdiaghg      :      2.71s CPU      1.21s WALL (    1374 calls)
     cegterg:over :      1.14s CPU      0.48s WALL (    1026 calls)
     cegterg:upda :      0.84s CPU      0.33s WALL (    1026 calls)
     cegterg:last :      1.44s CPU      0.53s WALL (     680 calls)
     h_psi        :     45.26s CPU     27.15s WALL (    1403 calls)
     s_psi        :      0.70s CPU      0.33s WALL (    1403 calls)
     g_psi        :      0.42s CPU      0.16s WALL (    1026 calls)

     Called by h_psi:
     h_psi:calbec :      0.78s CPU      0.57s WALL (    1403 calls)
     vloc_psi     :     43.51s CPU     26.10s WALL (    1403 calls)
     add_vuspsi   :      0.69s CPU      0.36s WALL (    1403 calls)

     General routines
     calbec       :      1.09s CPU      0.83s WALL (    1751 calls)
     fft          :      0.17s CPU      0.11s WALL (     143 calls)
     ffts         :      0.02s CPU      0.01s WALL (      12 calls)
     fftw         :     45.45s CPU     27.44s WALL (   62546 calls)

     Parallel routines

     PAW routines
     PAW_pot      :      4.90s CPU      4.56s WALL (      13 calls)
     PAW_symme    :      0.01s CPU      0.01s WALL (      25 calls)

     PWSCF        :   1m17.73s CPU     47.41s WALL


   This run was terminated on:  12:58:37  22May2024            

=------------------------------------------------------------------------------=
   JOB DONE.
=------------------------------------------------------------------------------=
