
     Program PWSCF v.6.7MaX starts on 22May2024 at 13: 0:56 

     This program is part of the open-source Quantum ESPRESSO suite
     for quantum simulation of materials; please cite
         "P. Giannozzi et al., J. Phys.:Condens. Matter 21 395502 (2009);
         "P. Giannozzi et al., J. Phys.:Condens. Matter 29 465901 (2017);
          URL http://www.quantum-espresso.org", 
     in publications or presentations arising from this work. More details at
     http://www.quantum-espresso.org/quote

     Parallel version (MPI), running on     1 processors

     MPI processes distributed on     1 nodes
     Waiting for input...
     Reading input from standard input

     Current dimensions of program PWSCF are:
     Max number of different atomic species (ntypx) = 10
     Max number of k-points (npk) =  40000
     Max angular momentum in pseudopotentials (lmaxx) =  3
     file Cu.UPF: wavefunction(s)  4S 3D renormalized
     file Pt.UPF: wavefunction(s)  6S 5D renormalized
     file Ni.UPF: wavefunction(s)  4S 3D renormalized

     Subspace diagonalization in iterative solution of the eigenvalue problem:
     a serial algorithm will be used


     G-vector sticks info
     --------------------
     sticks:   dense  smooth     PW     G-vecs:    dense   smooth      PW
     Sum         847     847    253                16049    16049    2685



     bravais-lattice index     =            2
     lattice parameter (alat)  =      11.0000  a.u.
     unit-cell volume          =     332.7500 (a.u.)^3
     number of atoms/cell      =            3
     number of atomic types    =            3
     number of electrons       =        31.00
     number of Kohn-Sham states=           30
     kinetic-energy cutoff     =      50.0000  Ry
     charge density cutoff     =     200.0000  Ry
     scf convergence threshold =      1.0E-07
     mixing beta               =       0.7000
     number of iterations used =            8  plain     mixing
     Exchange-correlation= SLA  PW   PBX  PBC
                           (   1   4   3   4   0   0   0)

     celldm(1)=  11.000000  celldm(2)=   0.000000  celldm(3)=   0.000000
     celldm(4)=   0.000000  celldm(5)=   0.000000  celldm(6)=   0.000000

     crystal axes: (cart. coord. in units of alat)
               a(1) = (  -0.500000   0.000000   0.500000 )  
               a(2) = (   0.000000   0.500000   0.500000 )  
               a(3) = (  -0.500000   0.500000   0.000000 )  

     reciprocal axes: (cart. coord. in units 2 pi/alat)
               b(1) = ( -1.000000 -1.000000  1.000000 )  
               b(2) = (  1.000000  1.000000  1.000000 )  
               b(3) = ( -1.000000  1.000000 -1.000000 )  


     PseudoPot. # 1 for Cu read from file:
     ././Cu.UPF
     MD5 check sum: cfffd1f38ee05704b3e17f46f1730a6f
     Pseudo is Projector augmented-wave + core cor, Zval = 11.0
     Generated using &quot;atomic&quot; code by A. Dal Corso  v.6.3
     Shape of augmentation charge: PSQ
     Using radial grid of 1199 points,  6 beta functions with: 
                l(1) =   0
                l(2) =   0
                l(3) =   1
                l(4) =   1
                l(5) =   2
                l(6) =   2
     Q(r) pseudized with 0 coefficients 


     PseudoPot. # 2 for Pt read from file:
     ././Pt.UPF
     MD5 check sum: c5224e9cd7a5e36e81f2def9f50bb494
     Pseudo is Projector augmented-wave + core cor, Zval = 10.0
     Generated using &quot;atomic&quot; code by A. Dal Corso  v.6.3
     Shape of augmentation charge: PSQ
     Using radial grid of 1277 points,  6 beta functions with: 
                l(1) =   0
                l(2) =   0
                l(3) =   1
                l(4) =   1
                l(5) =   2
                l(6) =   2
     Q(r) pseudized with 0 coefficients 


     PseudoPot. # 3 for Ni read from file:
     ././Ni.UPF
     MD5 check sum: 5bc40517020091042a126ac2b4ecef1e
     Pseudo is Projector augmented-wave + core cor, Zval = 10.0
     Generated using "atomic" code by A. Dal Corso  v.5.0.2 svn rev. 9415
     Shape of augmentation charge: PSQ
     Using radial grid of 1195 points,  6 beta functions with: 
                l(1) =   0
                l(2) =   0
                l(3) =   1
                l(4) =   1
                l(5) =   2
                l(6) =   2
     Q(r) pseudized with 0 coefficients 


     atomic species   valence    mass     pseudopotential
        Cu            11.00    63.54600     Cu( 1.00)
        Pt            10.00   195.08000     Pt( 1.00)
        Ni            10.00    58.69000     Ni( 1.00)

     24 Sym. Ops. (no inversion) found


                                    s                        frac. trans.

      isym =  1     identity                                     

 cryst.   s( 1) = (     1          0          0      )
                  (     0          1          0      )
                  (     0          0          1      )

 cart.    s( 1) = (  1.0000000  0.0000000  0.0000000 )
                  (  0.0000000  1.0000000  0.0000000 )
                  (  0.0000000  0.0000000  1.0000000 )


      isym =  2     180 deg rotation - cart. axis [0,0,1]        

 cryst.   s( 2) = (     0          1         -1      )
                  (     1          0         -1      )
                  (     0          0         -1      )

 cart.    s( 2) = ( -1.0000000  0.0000000  0.0000000 )
                  (  0.0000000 -1.0000000  0.0000000 )
                  (  0.0000000  0.0000000  1.0000000 )


      isym =  3     180 deg rotation - cart. axis [0,1,0]        

 cryst.   s( 3) = (    -1          0          0      )
                  (    -1          0          1      )
                  (    -1          1          0      )

 cart.    s( 3) = ( -1.0000000  0.0000000  0.0000000 )
                  (  0.0000000  1.0000000  0.0000000 )
                  (  0.0000000  0.0000000 -1.0000000 )


      isym =  4     180 deg rotation - cart. axis [1,0,0]        

 cryst.   s( 4) = (     0         -1          1      )
                  (     0         -1          0      )
                  (     1         -1          0      )

 cart.    s( 4) = (  1.0000000  0.0000000  0.0000000 )
                  (  0.0000000 -1.0000000  0.0000000 )
                  (  0.0000000  0.0000000 -1.0000000 )


      isym =  5     120 deg rotation - cart. axis [-1,-1,-1]     

 cryst.   s( 5) = (    -1          0          1      )
                  (    -1          1          0      )
                  (    -1          0          0      )

 cart.    s( 5) = (  0.0000000  1.0000000  0.0000000 )
                  (  0.0000000  0.0000000  1.0000000 )
                  (  1.0000000  0.0000000  0.0000000 )


      isym =  6     120 deg rotation - cart. axis [-1,1,1]       

 cryst.   s( 6) = (     0          1          0      )
                  (     0          0          1      )
                  (     1          0          0      )

 cart.    s( 6) = (  0.0000000 -1.0000000  0.0000000 )
                  (  0.0000000  0.0000000  1.0000000 )
                  ( -1.0000000  0.0000000  0.0000000 )


      isym =  7     120 deg rotation - cart. axis [1,1,-1]       

 cryst.   s( 7) = (     1          0         -1      )
                  (     0          0         -1      )
                  (     0          1         -1      )

 cart.    s( 7) = (  0.0000000  1.0000000  0.0000000 )
                  (  0.0000000  0.0000000 -1.0000000 )
                  ( -1.0000000  0.0000000  0.0000000 )


      isym =  8     120 deg rotation - cart. axis [1,-1,1]       

 cryst.   s( 8) = (     0         -1          0      )
                  (     1         -1          0      )
                  (     0         -1          1      )

 cart.    s( 8) = (  0.0000000 -1.0000000  0.0000000 )
                  (  0.0000000  0.0000000 -1.0000000 )
                  (  1.0000000  0.0000000  0.0000000 )


      isym =  9     120 deg rotation - cart. axis [1,1,1]        

 cryst.   s( 9) = (     0          0         -1      )
                  (     0          1         -1      )
                  (     1          0         -1      )

 cart.    s( 9) = (  0.0000000  0.0000000  1.0000000 )
                  (  1.0000000  0.0000000  0.0000000 )
                  (  0.0000000  1.0000000  0.0000000 )


      isym = 10     120 deg rotation - cart. axis [-1,1,-1]      

 cryst.   s(10) = (    -1          1          0      )
                  (    -1          0          0      )
                  (    -1          0          1      )

 cart.    s(10) = (  0.0000000  0.0000000  1.0000000 )
                  ( -1.0000000  0.0000000  0.0000000 )
                  (  0.0000000 -1.0000000  0.0000000 )


      isym = 11     120 deg rotation - cart. axis [1,-1,-1]      

 cryst.   s(11) = (     0          0          1      )
                  (     1          0          0      )
                  (     0          1          0      )

 cart.    s(11) = (  0.0000000  0.0000000 -1.0000000 )
                  ( -1.0000000  0.0000000  0.0000000 )
                  (  0.0000000  1.0000000  0.0000000 )


      isym = 12     120 deg rotation - cart. axis [-1,-1,1]      

 cryst.   s(12) = (     1         -1          0      )
                  (     0         -1          1      )
                  (     0         -1          0      )

 cart.    s(12) = (  0.0000000  0.0000000 -1.0000000 )
                  (  1.0000000  0.0000000  0.0000000 )
                  (  0.0000000 -1.0000000  0.0000000 )


      isym = 13     inv. 180 deg rotation - cart. axis [1,1,0]   

 cryst.   s(13) = (     0          1          0      )
                  (     1          0          0      )
                  (     0          0          1      )

 cart.    s(13) = (  0.0000000 -1.0000000  0.0000000 )
                  ( -1.0000000  0.0000000  0.0000000 )
                  (  0.0000000  0.0000000  1.0000000 )


      isym = 14     inv. 180 deg rotation - cart. axis [1,-1,0]  

 cryst.   s(14) = (     1          0         -1      )
                  (     0          1         -1      )
                  (     0          0         -1      )

 cart.    s(14) = (  0.0000000  1.0000000  0.0000000 )
                  (  1.0000000  0.0000000  0.0000000 )
                  (  0.0000000  0.0000000  1.0000000 )


      isym = 15     inv.  90 deg rotation - cart. axis [0,0,-1]  

 cryst.   s(15) = (     0         -1          0      )
                  (     0         -1          1      )
                  (     1         -1          0      )

 cart.    s(15) = (  0.0000000 -1.0000000  0.0000000 )
                  (  1.0000000  0.0000000  0.0000000 )
                  (  0.0000000  0.0000000 -1.0000000 )


      isym = 16     inv.  90 deg rotation - cart. axis [0,0,1]   

 cryst.   s(16) = (    -1          0          1      )
                  (    -1          0          0      )
                  (    -1          1          0      )

 cart.    s(16) = (  0.0000000  1.0000000  0.0000000 )
                  ( -1.0000000  0.0000000  0.0000000 )
                  (  0.0000000  0.0000000 -1.0000000 )


      isym = 17     inv. 180 deg rotation - cart. axis [1,0,1]   

 cryst.   s(17) = (     1          0          0      )
                  (     0          0          1      )
                  (     0          1          0      )

 cart.    s(17) = (  0.0000000  0.0000000 -1.0000000 )
                  (  0.0000000  1.0000000  0.0000000 )
                  ( -1.0000000  0.0000000  0.0000000 )


      isym = 18     inv. 180 deg rotation - cart. axis [-1,0,1]  

 cryst.   s(18) = (    -1          0          0      )
                  (    -1          1          0      )
                  (    -1          0          1      )

 cart.    s(18) = (  0.0000000  0.0000000  1.0000000 )
                  (  0.0000000  1.0000000  0.0000000 )
                  (  1.0000000  0.0000000  0.0000000 )


      isym = 19     inv.  90 deg rotation - cart. axis [0,1,0]   

 cryst.   s(19) = (     0         -1          1      )
                  (     1         -1          0      )
                  (     0         -1          0      )

 cart.    s(19) = (  0.0000000  0.0000000 -1.0000000 )
                  (  0.0000000 -1.0000000  0.0000000 )
                  (  1.0000000  0.0000000  0.0000000 )


      isym = 20     inv.  90 deg rotation - cart. axis [0,-1,0]  

 cryst.   s(20) = (     0          1         -1      )
                  (     0          0         -1      )
                  (     1          0         -1      )

 cart.    s(20) = (  0.0000000  0.0000000  1.0000000 )
                  (  0.0000000 -1.0000000  0.0000000 )
                  ( -1.0000000  0.0000000  0.0000000 )


      isym = 21     inv. 180 deg rotation - cart. axis [0,1,1]   

 cryst.   s(21) = (     1         -1          0      )
                  (     0         -1          0      )
                  (     0         -1          1      )

 cart.    s(21) = (  1.0000000  0.0000000  0.0000000 )
                  (  0.0000000  0.0000000 -1.0000000 )
                  (  0.0000000 -1.0000000  0.0000000 )


      isym = 22     inv. 180 deg rotation - cart. axis [0,1,-1]  

 cryst.   s(22) = (     0          0          1      )
                  (     0          1          0      )
                  (     1          0          0      )

 cart.    s(22) = (  1.0000000  0.0000000  0.0000000 )
                  (  0.0000000  0.0000000  1.0000000 )
                  (  0.0000000  1.0000000  0.0000000 )


      isym = 23     inv.  90 deg rotation - cart. axis [-1,0,0]  

 cryst.   s(23) = (     0          0         -1      )
                  (     1          0         -1      )
                  (     0          1         -1      )

 cart.    s(23) = ( -1.0000000  0.0000000  0.0000000 )
                  (  0.0000000  0.0000000 -1.0000000 )
                  (  0.0000000  1.0000000  0.0000000 )


      isym = 24     inv.  90 deg rotation - cart. axis [1,0,0]   

 cryst.   s(24) = (    -1          1          0      )
                  (    -1          0          1      )
                  (    -1          0          0      )

 cart.    s(24) = ( -1.0000000  0.0000000  0.0000000 )
                  (  0.0000000  0.0000000  1.0000000 )
                  (  0.0000000 -1.0000000  0.0000000 )


     point group T_d (-43m) 
     there are  5 classes
     the character table:

       E     8C3   3C2   6S4   6s_d 
A_1    1.00  1.00  1.00  1.00  1.00
A_2    1.00  1.00  1.00 -1.00 -1.00
E      2.00 -1.00  2.00  0.00  0.00
T_1    3.00  0.00 -1.00  1.00 -1.00
T_2    3.00  0.00 -1.00 -1.00  1.00

     the symmetry operations in each class and the name of the first element:

     E        1
          identity                                               
     8C3      5    7    8    6   12    9   10   11
          120 deg rotation - cart. axis [-1,-1,-1]               
     3C2      2    3    4
          180 deg rotation - cart. axis [0,0,1]                  
     6S4     15   16   20   19   23   24
          inv.  90 deg rotation - cart. axis [0,0,-1]            
     6s_d    13   14   17   18   21   22
          inv. 180 deg rotation - cart. axis [1,1,0]             

   Cartesian axes

     site n.     atom                  positions (alat units)
         1           Cu  tau(   1) = (   0.0000000   0.0000000   0.0000000  )
         2           Pt  tau(   2) = (   0.5000000   0.5000000   0.5000000  )
         3           Ni  tau(   3) = (   0.2500000   0.2500000   0.2500000  )

   Crystallographic axes

     site n.     atom                  positions (cryst. coord.)
         1           Cu  tau(   1) = (  0.0000000  0.0000000  0.0000000  )
         2           Pt  tau(   2) = ( -0.5000000  1.5000000 -0.5000000  )
         3           Ni  tau(   3) = ( -0.2500000  0.7500000 -0.2500000  )

     number of k points=    29  Methfessel-Paxton smearing, width (Ry)=  0.0050
                       cart. coord. in units 2pi/alat
        k(    1) = (   0.0000000   0.0000000   0.0000000), wk =   0.0039062
        k(    2) = (  -0.1250000   0.1250000  -0.1250000), wk =   0.0312500
        k(    3) = (  -0.2500000   0.2500000  -0.2500000), wk =   0.0312500
        k(    4) = (  -0.3750000   0.3750000  -0.3750000), wk =   0.0312500
        k(    5) = (   0.5000000  -0.5000000   0.5000000), wk =   0.0156250
        k(    6) = (   0.0000000   0.2500000   0.0000000), wk =   0.0234375
        k(    7) = (  -0.1250000   0.3750000  -0.1250000), wk =   0.0937500
        k(    8) = (  -0.2500000   0.5000000  -0.2500000), wk =   0.0937500
        k(    9) = (   0.6250000  -0.3750000   0.6250000), wk =   0.0937500
        k(   10) = (   0.5000000  -0.2500000   0.5000000), wk =   0.0937500
        k(   11) = (   0.3750000  -0.1250000   0.3750000), wk =   0.0937500
        k(   12) = (   0.2500000   0.0000000   0.2500000), wk =   0.0468750
        k(   13) = (   0.0000000   0.5000000   0.0000000), wk =   0.0234375
        k(   14) = (  -0.1250000   0.6250000  -0.1250000), wk =   0.0937500
        k(   15) = (   0.7500000  -0.2500000   0.7500000), wk =   0.0937500
        k(   16) = (   0.6250000  -0.1250000   0.6250000), wk =   0.0937500
        k(   17) = (   0.5000000   0.0000000   0.5000000), wk =   0.0468750
        k(   18) = (   0.0000000   0.7500000   0.0000000), wk =   0.0234375
        k(   19) = (   0.8750000  -0.1250000   0.8750000), wk =   0.0937500
        k(   20) = (   0.7500000   0.0000000   0.7500000), wk =   0.0468750
        k(   21) = (   0.0000000  -1.0000000   0.0000000), wk =   0.0117188
        k(   22) = (  -0.2500000   0.5000000   0.0000000), wk =   0.0937500
        k(   23) = (   0.6250000  -0.3750000   0.8750000), wk =   0.1875000
        k(   24) = (   0.5000000  -0.2500000   0.7500000), wk =   0.0937500
        k(   25) = (   0.7500000  -0.2500000   1.0000000), wk =   0.0937500
        k(   26) = (   0.6250000  -0.1250000   0.8750000), wk =   0.1875000
        k(   27) = (   0.5000000   0.0000000   0.7500000), wk =   0.0937500
        k(   28) = (  -0.2500000  -1.0000000   0.0000000), wk =   0.0468750
        k(   29) = (  -0.5000000  -1.0000000   0.0000000), wk =   0.0234375

                       cryst. coord.
        k(    1) = (   0.0000000   0.0000000   0.0000000), wk =   0.0039062
        k(    2) = (   0.0000000   0.0000000   0.1250000), wk =   0.0312500
        k(    3) = (   0.0000000   0.0000000   0.2500000), wk =   0.0312500
        k(    4) = (   0.0000000   0.0000000   0.3750000), wk =   0.0312500
        k(    5) = (   0.0000000   0.0000000  -0.5000000), wk =   0.0156250
        k(    6) = (   0.0000000   0.1250000   0.1250000), wk =   0.0234375
        k(    7) = (   0.0000000   0.1250000   0.2500000), wk =   0.0937500
        k(    8) = (   0.0000000   0.1250000   0.3750000), wk =   0.0937500
        k(    9) = (   0.0000000   0.1250000  -0.5000000), wk =   0.0937500
        k(   10) = (   0.0000000   0.1250000  -0.3750000), wk =   0.0937500
        k(   11) = (   0.0000000   0.1250000  -0.2500000), wk =   0.0937500
        k(   12) = (   0.0000000   0.1250000  -0.1250000), wk =   0.0468750
        k(   13) = (   0.0000000   0.2500000   0.2500000), wk =   0.0234375
        k(   14) = (   0.0000000   0.2500000   0.3750000), wk =   0.0937500
        k(   15) = (   0.0000000   0.2500000  -0.5000000), wk =   0.0937500
        k(   16) = (   0.0000000   0.2500000  -0.3750000), wk =   0.0937500
        k(   17) = (   0.0000000   0.2500000  -0.2500000), wk =   0.0468750
        k(   18) = (   0.0000000   0.3750000   0.3750000), wk =   0.0234375
        k(   19) = (   0.0000000   0.3750000  -0.5000000), wk =   0.0937500
        k(   20) = (   0.0000000   0.3750000  -0.3750000), wk =   0.0468750
        k(   21) = (   0.0000000  -0.5000000  -0.5000000), wk =   0.0117188
        k(   22) = (   0.1250000   0.2500000   0.3750000), wk =   0.0937500
        k(   23) = (   0.1250000   0.2500000  -0.5000000), wk =   0.1875000
        k(   24) = (   0.1250000   0.2500000  -0.3750000), wk =   0.0937500
        k(   25) = (   0.1250000   0.3750000  -0.5000000), wk =   0.0937500
        k(   26) = (   0.1250000   0.3750000  -0.3750000), wk =   0.1875000
        k(   27) = (   0.1250000   0.3750000  -0.2500000), wk =   0.0937500
        k(   28) = (   0.1250000  -0.5000000  -0.3750000), wk =   0.0468750
        k(   29) = (   0.2500000  -0.5000000  -0.2500000), wk =   0.0234375

     Dense  grid:    16049 G-vectors     FFT dimensions: (  36,  36,  36)

     Dynamical RAM for                 wfc:       0.91 MB

     Dynamical RAM for     wfc (w. buffer):      27.29 MB

     Dynamical RAM for           str. fact:       0.73 MB

     Dynamical RAM for           local pot:       0.00 MB

     Dynamical RAM for          nlocal pot:       1.64 MB

     Dynamical RAM for                qrad:       3.41 MB

     Dynamical RAM for          rho,v,vnew:       1.80 MB

     Dynamical RAM for               rhoin:       0.60 MB

     Dynamical RAM for            rho*nmix:       3.92 MB

     Dynamical RAM for           G-vectors:       1.04 MB

     Dynamical RAM for          h,s,v(r/c):       0.16 MB

     Dynamical RAM for          <psi|beta>:       0.02 MB

     Dynamical RAM for                 psi:       1.82 MB

     Dynamical RAM for                hpsi:       1.82 MB

     Dynamical RAM for                spsi:       1.82 MB

     Dynamical RAM for      wfcinit/wfcrot:       1.84 MB

     Dynamical RAM for           addusdens:      45.79 MB

     Estimated static dynamical RAM per process >      43.19 MB

     Estimated max dynamical RAM per process >      88.98 MB

     Check: negative core charge=   -0.000003

     Initial potential from superposition of free atoms

     starting charge   30.99935, renormalised to   31.00000
     Starting wfcs are   27 randomized atomic wfcs +    3 random wfcs
     Checking if some PAW data can be deallocated... 

     total cpu time spent up to now is        2.3 secs

     Self-consistent Calculation

     iteration #  1     ecut=    50.00 Ry     beta= 0.70
     Davidson diagonalization with overlap
     ethr =  1.00E-02,  avg # of iterations =  5.7

     total cpu time spent up to now is        7.0 secs

     total energy              =   -1144.56205673 Ry
     estimated scf accuracy    <       1.90330487 Ry

     iteration #  2     ecut=    50.00 Ry     beta= 0.70
     Davidson diagonalization with overlap
     ethr =  6.14E-03,  avg # of iterations =  2.2

     total cpu time spent up to now is       11.1 secs

     total energy              =   -1142.66813434 Ry
     estimated scf accuracy    <      49.73299286 Ry

     iteration #  3     ecut=    50.00 Ry     beta= 0.70
     Davidson diagonalization with overlap
     ethr =  6.14E-03,  avg # of iterations =  2.0

     total cpu time spent up to now is       14.8 secs

     total energy              =   -1145.95506400 Ry
     estimated scf accuracy    <       0.50174269 Ry

     iteration #  4     ecut=    50.00 Ry     beta= 0.70
     Davidson diagonalization with overlap
     ethr =  1.62E-03,  avg # of iterations =  1.2

     total cpu time spent up to now is       18.2 secs

     total energy              =   -1146.01597674 Ry
     estimated scf accuracy    <       0.09783309 Ry

     iteration #  5     ecut=    50.00 Ry     beta= 0.70
     Davidson diagonalization with overlap
     ethr =  3.16E-04,  avg # of iterations =  1.8

     total cpu time spent up to now is       21.6 secs

     total energy              =   -1146.01694268 Ry
     estimated scf accuracy    <       0.03215522 Ry

     iteration #  6     ecut=    50.00 Ry     beta= 0.70
     Davidson diagonalization with overlap
     ethr =  1.04E-04,  avg # of iterations =  3.2

     total cpu time spent up to now is       25.1 secs

     total energy              =   -1146.01984445 Ry
     estimated scf accuracy    <       0.00155594 Ry

     iteration #  7     ecut=    50.00 Ry     beta= 0.70
     Davidson diagonalization with overlap
     ethr =  5.02E-06,  avg # of iterations =  8.4

     total cpu time spent up to now is       30.1 secs

     total energy              =   -1146.02042830 Ry
     estimated scf accuracy    <       0.00160116 Ry

     iteration #  8     ecut=    50.00 Ry     beta= 0.70
     Davidson diagonalization with overlap
     ethr =  5.02E-06,  avg # of iterations =  1.1

     total cpu time spent up to now is       33.4 secs

     total energy              =   -1146.02054466 Ry
     estimated scf accuracy    <       0.00002718 Ry

     iteration #  9     ecut=    50.00 Ry     beta= 0.70
     Davidson diagonalization with overlap
     ethr =  8.77E-08,  avg # of iterations =  3.8

     total cpu time spent up to now is       37.4 secs

     total energy              =   -1146.02055778 Ry
     estimated scf accuracy    <       0.00000503 Ry

     iteration # 10     ecut=    50.00 Ry     beta= 0.70
     Davidson diagonalization with overlap
     ethr =  1.62E-08,  avg # of iterations =  2.4

     total cpu time spent up to now is       40.9 secs

     total energy              =   -1146.02055796 Ry
     estimated scf accuracy    <       0.00000144 Ry

     iteration # 11     ecut=    50.00 Ry     beta= 0.70
     Davidson diagonalization with overlap
     ethr =  4.65E-09,  avg # of iterations =  2.7

     total cpu time spent up to now is       44.6 secs

     End of self-consistent calculation

          k = 0.0000 0.0000 0.0000 (  1989 PWs)   bands (ev):

     2.5102   6.2390   6.2390   6.6502   6.6502   6.6502   7.7851   7.7851
     7.7851   9.0431   9.0431   9.3140   9.3140   9.3140   9.8108   9.8108
    17.3671  17.3671  17.3671  18.8920  19.6265  19.9936  19.9936  19.9936
    22.3645  22.3645  22.3645  26.8832  26.8832  26.9914

     occupation numbers 
     1.0000   1.0000   1.0000   1.0000   1.0000   1.0000   1.0000   1.0000
     1.0000   1.0000   1.0000   1.0000   1.0000   1.0000   1.0206   1.0206
    -0.0000  -0.0000  -0.0000  -0.0000  -0.0000  -0.0000  -0.0000  -0.0000
    -0.0000  -0.0000  -0.0000  -0.0000  -0.0000  -0.0000

          k =-0.1250 0.1250-0.1250 (  1989 PWs)   bands (ev):

     2.7397   6.3007   6.3007   6.6081   6.7102   6.7102   7.7622   7.7622
     7.8484   8.9431   8.9431   9.1050   9.2858   9.2858   9.8235   9.8235
    15.4562  17.2701  17.2701  18.8989  19.8988  19.8988  20.0417  20.6360
    22.4498  22.4498  23.4763  27.5651  27.5651  28.1770

     occupation numbers 
     1.0000   1.0000   1.0000   1.0000   1.0000   1.0000   1.0000   1.0000
     1.0000   1.0000   1.0000   1.0000   1.0000   1.0000   1.0290   1.0290
    -0.0000  -0.0000  -0.0000  -0.0000  -0.0000  -0.0000  -0.0000  -0.0000
    -0.0000  -0.0000  -0.0000  -0.0000  -0.0000  -0.0000

          k =-0.2500 0.2500-0.2500 (  1982 PWs)   bands (ev):

     3.3992   6.4745   6.4745   6.5547   6.8586   6.8586   7.7097   7.7097
     7.9256   8.5952   8.6489   8.6489   9.2804   9.2804   9.8184   9.8184
    13.0045  17.0382  17.0382  18.3895  19.5162  19.5162  20.1304  21.9502
    23.1682  23.1682  26.5018  29.1101  29.1101  30.8804

     occupation numbers 
     1.0000   1.0000   1.0000   1.0000   1.0000   1.0000   1.0000   1.0000
     1.0000   1.0000   1.0000   1.0000   1.0000   1.0000   1.0257   1.0257
    -0.0000  -0.0000  -0.0000  -0.0000  -0.0000  -0.0000  -0.0000  -0.0000
    -0.0000  -0.0000  -0.0000  -0.0000  -0.0000  -0.0000

          k =-0.3750 0.3750-0.3750 (  1988 PWs)   bands (ev):

     4.3575   6.5475   6.7035   6.7035   7.0134   7.0134   7.5684   7.6710
     7.6710   8.2870   8.2870   8.3057   9.3139   9.3139   9.7748   9.7748
    11.1242  16.7909  16.7909  18.0507  19.1304  19.1304  19.8878  24.1543
    24.5312  24.5312  29.3959  29.3960  29.6138  31.2306

     occupation numbers 
     1.0000   1.0000   1.0000   1.0000   1.0000   1.0000   1.0000   1.0000
     1.0000   1.0000   1.0000   1.0000   1.0000   1.0000   1.0042   1.0042
    -0.0000  -0.0000  -0.0000  -0.0000  -0.0000  -0.0000  -0.0000  -0.0000
    -0.0000  -0.0000  -0.0000  -0.0000  -0.0000  -0.0000

          k = 0.5000-0.5000 0.5000 (  2006 PWs)   bands (ev):

     5.0247   6.4750   6.8278   6.8278   7.0803   7.0803   7.1549   7.6743
     7.6743   8.0897   8.0897   8.2971   9.3388   9.3388   9.7437   9.7437
    10.3932  16.6806  16.6806  17.9321  18.9899  18.9899  19.8038  25.6342
    25.6342  26.2059  28.0135  28.0978  28.0978  32.9392

     occupation numbers 
     1.0000   1.0000   1.0000   1.0000   1.0000   1.0000   1.0000   1.0000
     1.0000   1.0000   1.0000   1.0000   1.0000   1.0000   1.0006   1.0006
    -0.0000  -0.0000  -0.0000  -0.0000  -0.0000  -0.0000  -0.0000  -0.0000
    -0.0000  -0.0000  -0.0000  -0.0000  -0.0000  -0.0000

          k = 0.0000 0.2500 0.0000 (  1997 PWs)   bands (ev):

     2.8147   6.2927   6.3312   6.5693   6.7417   6.7417   7.6746   7.8474
     7.8474   8.8134   9.0296   9.2256   9.2256   9.2286   9.7383   9.8705
    16.2735  16.2735  16.3989  18.1832  19.5498  20.6917  20.6917  21.0229
    22.5466  23.4219  23.4219  26.8296  26.9714  29.5962

     occupation numbers 
     1.0000   1.0000   1.0000   1.0000   1.0000   1.0000   1.0000   1.0000
     1.0000   1.0000   1.0000   1.0000   1.0000   1.0000   1.0004   0.9837
    -0.0000  -0.0000  -0.0000  -0.0000  -0.0000  -0.0000  -0.0000  -0.0000
    -0.0000  -0.0000  -0.0000  -0.0000  -0.0000  -0.0000

          k =-0.1250 0.3750-0.1250 (  1982 PWs)   bands (ev):

     3.3265   6.3470   6.4732   6.5263   6.8592   6.8853   7.5172   7.8831
     7.9269   8.6076   8.8429   8.9004   9.2253   9.2721   9.6848   9.8874
    13.8782  15.5899  16.7224  17.4425  19.5096  20.6875  20.9829  22.0851
    23.3458  24.2589  25.5706  27.5127  28.1339  31.8186

     occupation numbers 
     1.0000   1.0000   1.0000   1.0000   1.0000   1.0000   1.0000   1.0000
     1.0000   1.0000   1.0000   1.0000   1.0000   1.0000   1.0000   0.8855
    -0.0000  -0.0000  -0.0000  -0.0000  -0.0000  -0.0000  -0.0000  -0.0000
    -0.0000  -0.0000  -0.0000  -0.0000  -0.0000  -0.0000

          k =-0.2500 0.5000-0.2500 (  1976 PWs)   bands (ev):

     4.1878   6.3752   6.5735   6.6800   7.0018   7.1021   7.3976   7.8636
     7.8693   8.3568   8.4584   8.5363   9.2829   9.2974   9.6718   9.8628
    11.6981  15.3327  15.8753  17.5230  19.9393  20.7149  21.2310  21.9877
    25.1005  25.3474  28.3751  28.5785  29.9881  31.0023

     occupation numbers 
     1.0000   1.0000   1.0000   1.0000   1.0000   1.0000   1.0000   1.0000
     1.0000   1.0000   1.0000   1.0000   1.0000   1.0000   1.0000   1.0097
    -0.0000  -0.0000  -0.0000  -0.0000  -0.0000  -0.0000  -0.0000  -0.0000
    -0.0000  -0.0000  -0.0000  -0.0000  -0.0000  -0.0000

          k = 0.6250-0.3750 0.6250 (  1979 PWs)   bands (ev):

     5.0658   6.2420   6.6783   6.8262   7.0804   7.1368   7.5185   7.6752
     7.7906   8.0952   8.1827   8.4011   9.2896   9.3492   9.7495   9.7695
    10.4540  15.1083  15.5648  17.6043  19.8860  20.2587  21.5724  23.4947
    25.7876  26.3652  28.0333  28.0495  30.5580  31.6491

     occupation numbers 
     1.0000   1.0000   1.0000   1.0000   1.0000   1.0000   1.0000   1.0000
     1.0000   1.0000   1.0000   1.0000   1.0000   1.0000   1.0009   1.0031
    -0.0000  -0.0000  -0.0000  -0.0000  -0.0000  -0.0000  -0.0000  -0.0000
    -0.0000  -0.0000  -0.0000  -0.0000  -0.0000  -0.0000

          k = 0.5000-0.2500 0.5000 (  1990 PWs)   bands (ev):

     4.8190   6.3430   6.6908   6.7817   7.1162   7.1583   7.4185   7.6000
     7.8415   8.1261   8.2245   8.4458   9.2694   9.3726   9.6509   9.8595
    10.7607  14.6753  16.2829  17.8389  19.7797  19.8206  21.7640  23.9568
    24.0986  26.0206  28.3580  29.6205  29.8287  31.2041

     occupation numbers 
     1.0000   1.0000   1.0000   1.0000   1.0000   1.0000   1.0000   1.0000
     1.0000   1.0000   1.0000   1.0000   1.0000   1.0000   1.0000   1.0176
    -0.0000  -0.0000  -0.0000  -0.0000  -0.0000  -0.0000  -0.0000  -0.0000
    -0.0000  -0.0000  -0.0000  -0.0000  -0.0000  -0.0000

          k = 0.3750-0.1250 0.3750 (  1983 PWs)   bands (ev):

     3.8744   6.4505   6.5443   6.5841   6.9905   7.0369   7.5553   7.6844
     7.9028   8.4244   8.4445   8.6798   9.2669   9.3174   9.6314   9.9166
    12.4004  14.6543  17.3822  18.3388  19.3194  19.7459  21.3073  22.5673
    22.6850  25.9560  27.3263  28.3410  29.6573  31.0679

     occupation numbers 
     1.0000   1.0000   1.0000   1.0000   1.0000   1.0000   1.0000   1.0000
     1.0000   1.0000   1.0000   1.0000   1.0000   1.0000   1.0000   0.5841
    -0.0000  -0.0000  -0.0000  -0.0000  -0.0000  -0.0000  -0.0000  -0.0000
    -0.0000  -0.0000  -0.0000  -0.0000  -0.0000  -0.0000

          k = 0.2500 0.0000 0.2500 (  1985 PWs)   bands (ev):

     3.1116   6.3922   6.3923   6.5286   6.8011   6.8405   7.6481   7.8302
     7.8729   8.7285   8.7541   8.9868   9.2457   9.2821   9.7172   9.8995
    14.4784  15.2874  18.2757  18.8538  19.1354  19.5908  20.2076  21.9810
    22.0145  24.3319  24.9006  26.8962  29.1478  30.0620

     occupation numbers 
     1.0000   1.0000   1.0000   1.0000   1.0000   1.0000   1.0000   1.0000
     1.0000   1.0000   1.0000   1.0000   1.0000   1.0000   1.0001   0.7774
    -0.0000  -0.0000  -0.0000  -0.0000  -0.0000  -0.0000  -0.0000  -0.0000
    -0.0000  -0.0000  -0.0000  -0.0000  -0.0000  -0.0000

          k = 0.0000 0.5000 0.0000 (  1996 PWs)   bands (ev):

     3.6669   6.2123   6.5006   6.5787   6.9409   6.9409   7.3079   8.0090
     8.0090   8.5833   8.9814   9.1306   9.1306   9.1637   9.5541   9.8775
    14.4447  14.4447  15.1740  15.7897  18.9056  22.1967  22.1967  24.3259
    24.6900  25.5866  25.5866  26.6876  27.1287  32.3147

     occupation numbers 
     1.0000   1.0000   1.0000   1.0000   1.0000   1.0000   1.0000   1.0000
     1.0000   1.0000   1.0000   1.0000   1.0000   1.0000   1.0000   0.9507
    -0.0000  -0.0000  -0.0000  -0.0000  -0.0000  -0.0000  -0.0000  -0.0000
    -0.0000  -0.0000  -0.0000  -0.0000  -0.0000  -0.0000

          k =-0.1250 0.6250-0.1250 (  1992 PWs)   bands (ev):

     4.3521   6.1485   6.3991   6.7458   7.0557   7.0698   7.2739   8.0234
     8.0458   8.5304   8.7492   8.9201   9.2016   9.2898   9.5608   9.8834
    12.4405  13.8442  14.0290  16.4126  19.2346  22.4041  22.6289  24.6889
    26.2248  26.4400  27.2846  27.5289  28.9121  30.8456

     occupation numbers 
     1.0000   1.0000   1.0000   1.0000   1.0000   1.0000   1.0000   1.0000
     1.0000   1.0000   1.0000   1.0000   1.0000   1.0000   1.0000   0.9139
    -0.0000  -0.0000  -0.0000  -0.0000  -0.0000  -0.0000  -0.0000  -0.0000
    -0.0000  -0.0000  -0.0000  -0.0000  -0.0000  -0.0000

          k = 0.7500-0.2500 0.7500 (  1988 PWs)   bands (ev):

     5.1824   6.0381   6.3799   6.8553   6.9852   7.2348   7.5308   7.9225
     8.1362   8.3319   8.3888   8.7516   9.1630   9.4229   9.7684   9.8671
    10.6729  13.0801  13.9505  16.9887  20.6084  22.1073  22.3473  24.4447
    26.1179  26.6819  28.0047  28.5425  30.3826  31.4371

     occupation numbers 
     1.0000   1.0000   1.0000   1.0000   1.0000   1.0000   1.0000   1.0000
     1.0000   1.0000   1.0000   1.0000   1.0000   1.0000   1.0030   0.9966
    -0.0000  -0.0000  -0.0000  -0.0000  -0.0000  -0.0000  -0.0000  -0.0000
    -0.0000  -0.0000  -0.0000  -0.0000  -0.0000  -0.0000

          k = 0.6250-0.1250 0.6250 (  1985 PWs)   bands (ev):

     5.3927   6.0588   6.5615   6.8325   6.8525   7.3711   7.6511   7.7753
     7.9691   8.1405   8.3819   8.5789   9.1706   9.3718   9.7697   9.9166
    10.6113  12.4697  14.7333  17.3308  21.3541  21.8971  22.8592  23.8531
    24.0318  25.4544  28.8231  29.8222  31.0790  31.6798

     occupation numbers 
     1.0000   1.0000   1.0000   1.0000   1.0000   1.0000   1.0000   1.0000
     1.0000   1.0000   1.0000   1.0000   1.0000   1.0000   1.0032   0.5830
    -0.0000  -0.0000  -0.0000  -0.0000  -0.0000  -0.0000  -0.0000  -0.0000
    -0.0000  -0.0000  -0.0000  -0.0000  -0.0000  -0.0000

          k = 0.5000 0.0000 0.5000 (  1971 PWs)   bands (ev):

     4.6447   6.3260   6.5568   6.7468   7.1023   7.2476   7.5071   7.5489
     7.9398   8.1601   8.3723   8.6621   9.2183   9.3793   9.5643   9.9572
    11.9727  12.5326  15.9873  17.7419  20.9672  21.1114  21.5181  22.6155
    24.7368  25.8858  27.4474  29.5833  30.0339  31.5170

     occupation numbers 
     1.0000   1.0000   1.0000   1.0000   1.0000   1.0000   1.0000   1.0000
     1.0000   1.0000   1.0000   1.0000   1.0000   1.0000   1.0000   0.1316
    -0.0000  -0.0000  -0.0000  -0.0000  -0.0000  -0.0000  -0.0000  -0.0000
    -0.0000  -0.0000  -0.0000  -0.0000  -0.0000  -0.0000

          k = 0.0000 0.7500 0.0000 (  1996 PWs)   bands (ev):

     4.7796   5.9638   6.2855   6.8796   7.1042   7.1042   7.2725   8.0731
     8.0731   8.6312   8.8782   9.0686   9.3707   9.4445   9.4445   9.9264
    12.3983  12.7869  12.7869  15.4985  18.6484  24.2717  24.2717  26.5234
    26.9158  27.4202  27.7168  27.7168  28.6080  30.6759

     occupation numbers 
     1.0000   1.0000   1.0000   1.0000   1.0000   1.0000   1.0000   1.0000
     1.0000   1.0000   1.0000   1.0000   1.0000   1.0000   1.0000   0.4620
    -0.0000  -0.0000  -0.0000  -0.0000  -0.0000  -0.0000  -0.0000  -0.0000
    -0.0000  -0.0000  -0.0000  -0.0000  -0.0000  -0.0000

          k = 0.8750-0.1250 0.8750 (  1993 PWs)   bands (ev):

     5.2986   5.8546   6.2992   6.9423   7.0124   7.2347   7.4322   7.9868
     8.1894   8.6100   8.7652   8.9861   9.1053   9.7346   9.8103  10.0735
    11.1120  11.6932  12.5790  16.1308  19.0579  24.3908  24.5648  26.3011
    26.4670  27.6908  28.2785  28.9481  30.0496  30.1624

     occupation numbers 
     1.0000   1.0000   1.0000   1.0000   1.0000   1.0000   1.0000   1.0000
     1.0000   1.0000   1.0000   1.0000   1.0000   1.0003   1.0202  -0.0039
    -0.0000  -0.0000  -0.0000  -0.0000  -0.0000  -0.0000  -0.0000  -0.0000
    -0.0000  -0.0000  -0.0000  -0.0000  -0.0000  -0.0000

          k = 0.7500 0.0000 0.7500 (  2003 PWs)   bands (ev):

     5.6991   5.8048   6.4380   6.7276   6.9044   7.4249   7.5749   7.8313
     8.3314   8.4522   8.5312   8.8474   9.0626   9.7436   9.9300   9.9432
    10.6500  11.0471  13.3680  16.8555  20.5364  23.8136  24.0892  24.1033
    24.3642  27.9747  28.4027  29.4073  30.5409  31.4753

     occupation numbers 
     1.0000   1.0000   1.0000   1.0000   1.0000   1.0000   1.0000   1.0000
     1.0000   1.0000   1.0000   1.0000   1.0000   1.0006   0.4178   0.2644
    -0.0000  -0.0000  -0.0000  -0.0000  -0.0000  -0.0000  -0.0000  -0.0000
    -0.0000  -0.0000  -0.0000  -0.0000  -0.0000  -0.0000

          k = 0.0000-1.0000 0.0000 (  2012 PWs)   bands (ev):

     5.3525   5.7226   6.3463   7.0309   7.1630   7.1630   7.3847   8.0440
     8.0440   8.7033   8.7979   8.9920   9.3052   9.8722   9.8722  10.3279
    10.7213  11.9342  11.9342  15.4429  18.5820  26.0567  26.0567  26.4477
    27.2783  27.8619  27.8619  28.8701  29.5980  29.5981

     occupation numbers 
     1.0000   1.0000   1.0000   1.0000   1.0000   1.0000   1.0000   1.0000
     1.0000   1.0000   1.0000   1.0000   1.0000   0.9769   0.9769  -0.0000
    -0.0000  -0.0000  -0.0000  -0.0000  -0.0000  -0.0000  -0.0000  -0.0000
    -0.0000  -0.0000  -0.0000  -0.0000  -0.0000  -0.0000

          k =-0.2500 0.5000 0.0000 (  1980 PWs)   bands (ev):

     3.9359   6.3068   6.4830   6.6534   6.9946   7.0542   7.3440   7.8955
     7.9688   8.5062   8.5805   8.8201   9.2414   9.2988   9.5732   9.9142
    13.0795  13.7203  15.7871  17.8041  19.6492  20.2726  22.2436  23.0534
    23.9643  26.4346  27.1388  27.3089  28.9656  30.8962

     occupation numbers 
     1.0000   1.0000   1.0000   1.0000   1.0000   1.0000   1.0000   1.0000
     1.0000   1.0000   1.0000   1.0000   1.0000   1.0000   1.0000   0.6130
    -0.0000  -0.0000  -0.0000  -0.0000  -0.0000  -0.0000  -0.0000  -0.0000
    -0.0000  -0.0000  -0.0000  -0.0000  -0.0000  -0.0000

          k = 0.6250-0.3750 0.8750 (  1987 PWs)   bands (ev):

     4.7951   6.2416   6.4458   6.8347   7.0981   7.1385   7.4711   7.7867
     8.0066   8.2168   8.3725   8.6695   9.1968   9.3979   9.6227   9.9121
    11.2923  13.3396  14.7082  18.4064  19.5748  21.0163  22.5819  23.6837
    25.0081  26.0980  28.1297  28.9566  30.1637  30.9505

     occupation numbers 
     1.0000   1.0000   1.0000   1.0000   1.0000   1.0000   1.0000   1.0000
     1.0000   1.0000   1.0000   1.0000   1.0000   1.0000   1.0000   0.6383
    -0.0000  -0.0000  -0.0000  -0.0000  -0.0000  -0.0000  -0.0000  -0.0000
    -0.0000  -0.0000  -0.0000  -0.0000  -0.0000  -0.0000

          k = 0.5000-0.2500 0.7500 (  1994 PWs)   bands (ev):

     5.4080   6.0086   6.5265   6.8217   7.0901   7.2000   7.6835   7.7212
     7.9651   8.0977   8.3604   8.5301   9.1719   9.4783   9.7362   9.8715
    10.3394  13.5016  14.1177  18.4964  19.4025  22.3846  22.7884  23.6069
    24.2160  26.6109  27.7267  30.6602  30.7648  31.1317

     occupation numbers 
     1.0000   1.0000   1.0000   1.0000   1.0000   1.0000   1.0000   1.0000
     1.0000   1.0000   1.0000   1.0000   1.0000   1.0000   1.0004   0.9796
    -0.0000  -0.0000  -0.0000  -0.0000  -0.0000  -0.0000  -0.0000  -0.0000
    -0.0000  -0.0000  -0.0000  -0.0000  -0.0000  -0.0000

          k = 0.7500-0.2500 1.0000 (  1987 PWs)   bands (ev):

     4.9974   6.0611   6.2703   6.8622   7.0393   7.2060   7.4045   7.9862
     8.1317   8.5003   8.6060   8.8763   9.1181   9.5001   9.6865   9.9349
    11.8291  12.2926  12.9917  17.1458  19.4451  21.8800  24.4874  25.5708
    26.3430  26.5791  27.4989  29.0385  29.7485  30.7652

     occupation numbers 
     1.0000   1.0000   1.0000   1.0000   1.0000   1.0000   1.0000   1.0000
     1.0000   1.0000   1.0000   1.0000   1.0000   1.0000   1.0000   0.3588
    -0.0000  -0.0000  -0.0000  -0.0000  -0.0000  -0.0000  -0.0000  -0.0000
    -0.0000  -0.0000  -0.0000  -0.0000  -0.0000  -0.0000

          k = 0.6250-0.1250 0.8750 (  1982 PWs)   bands (ev):

     5.6047   5.9232   6.3532   6.7059   7.0647   7.3824   7.5605   7.8761
     8.1298   8.4008   8.4810   8.8156   9.0640   9.7646   9.9195  10.0471
    10.4676  11.8392  12.6568  18.0771  20.6337  21.3164  23.4284  24.9068
    26.5544  27.0979  27.9620  29.5982  30.3454  30.6543

     occupation numbers 
     1.0000   1.0000   1.0000   1.0000   1.0000   1.0000   1.0000   1.0000
     1.0000   1.0000   1.0000   1.0000   1.0000   1.0024   0.5477  -0.0137
    -0.0000  -0.0000  -0.0000  -0.0000  -0.0000  -0.0000  -0.0000  -0.0000
    -0.0000  -0.0000  -0.0000  -0.0000  -0.0000  -0.0000

          k = 0.5000 0.0000 0.7500 (  1980 PWs)   bands (ev):

     5.4574   6.0567   6.4036   6.7172   7.1084   7.3510   7.5997   7.7660
     7.9682   8.3460   8.4180   8.7215   9.0962   9.5170   9.7976   9.9664
    11.1871  11.5005  13.5111  18.6740  20.2817  21.4782  23.0200  24.4839
    25.0672  26.9050  27.5382  30.1270  30.4396  31.8902

     occupation numbers 
     1.0000   1.0000   1.0000   1.0000   1.0000   1.0000   1.0000   1.0000
     1.0000   1.0000   1.0000   1.0000   1.0000   1.0000   1.0126   0.0656
    -0.0000  -0.0000  -0.0000  -0.0000  -0.0000  -0.0000  -0.0000  -0.0000
    -0.0000  -0.0000  -0.0000  -0.0000  -0.0000  -0.0000

          k =-0.2500-1.0000 0.0000 (  1996 PWs)   bands (ev):

     5.5335   5.8300   6.3546   6.8111   6.9967   7.3593   7.4730   7.9737
     8.3018   8.5851   8.6757   8.8312   9.0411   9.8945   9.9655  10.4278
    10.6602  11.5597  11.6509  16.9533  19.3619  23.5902  24.0706  26.5263
    26.9671  27.5848  28.7475  29.1657  29.8342  30.0852

     occupation numbers 
     1.0000   1.0000   1.0000   1.0000   1.0000   1.0000   1.0000   1.0000
     1.0000   1.0000   1.0000   1.0000   1.0000   0.8256   0.0712  -0.0000
    -0.0000  -0.0000  -0.0000  -0.0000  -0.0000  -0.0000  -0.0000  -0.0000
    -0.0000  -0.0000  -0.0000  -0.0000  -0.0000  -0.0000

          k =-0.5000-1.0000 0.0000 (  1964 PWs)   bands (ev):

     5.7321   6.0075   6.3710   6.4888   7.2859   7.4001   7.5280   7.9067
     7.9215   8.4458   8.5157   8.8786   9.0436   9.9025  10.0460  10.6098
    10.7660  10.9611  11.5163  19.9853  20.0589  21.0399  21.6852  26.9987
    27.2624  27.5622  28.7123  28.7514  29.1440  29.9521

     occupation numbers 
     1.0000   1.0000   1.0000   1.0000   1.0000   1.0000   1.0000   1.0000
     1.0000   1.0000   1.0000   1.0000   1.0000   0.7466  -0.0143  -0.0000
    -0.0000  -0.0000  -0.0000  -0.0000  -0.0000  -0.0000  -0.0000  -0.0000
    -0.0000  -0.0000  -0.0000  -0.0000  -0.0000  -0.0000

     the Fermi energy is     9.9233 ev

!    total energy              =   -1146.02055820 Ry

     total all-electron energy =    -43178.979937 Ry
     estimated scf accuracy    <       0.00000006 Ry
     smearing contrib. (-TS)   =      -0.00051146 Ry
     internal energy E=F+TS    =   -1146.02004674 Ry

     The total energy is F=E-TS. E is the sum of the following terms:
     one-electron contribution =     -62.09785681 Ry
     hartree contribution      =      71.88684658 Ry
     xc contribution           =    -110.01637084 Ry
     ewald contribution        =    -186.20864255 Ry
     one-center paw contrib.   =    -859.58402311 Ry
      -> PAW hartree energy AE =     226.19826775 Ry
      -> PAW hartree energy PS =    -225.10297016 Ry
      -> PAW xc energy AE      =    -970.28847457 Ry
      -> PAW xc energy PS      =     109.60915387 Ry
      -> total E_H with PAW    =      72.98214417 Ry
      -> total E_XC with PAW   =    -970.69569154 Ry

     convergence has been achieved in  11 iterations

     Writing output data file ././CuPtNi.save/

     init_run     :      2.90s CPU      2.13s WALL (       1 calls)
     electrons    :     70.43s CPU     42.23s WALL (       1 calls)

     Called by init_run:
     wfcinit      :      1.72s CPU      1.01s WALL (       1 calls)
     wfcinit:atom :      0.04s CPU      0.02s WALL (      29 calls)
     wfcinit:wfcr :      1.58s CPU      0.95s WALL (      29 calls)
     potinit      :      0.34s CPU      0.36s WALL (       1 calls)
     hinit0       :      0.67s CPU      0.65s WALL (       1 calls)

     Called by electrons:
     c_bands      :     52.97s CPU     30.04s WALL (      11 calls)
     sum_band     :     11.93s CPU      7.11s WALL (      11 calls)
     v_of_rho     :      0.38s CPU      0.24s WALL (      12 calls)
     v_h          :      0.02s CPU      0.01s WALL (      12 calls)
     v_xc         :      0.36s CPU      0.22s WALL (      12 calls)
     newd         :      1.18s CPU      1.05s WALL (      12 calls)
     PAW_pot      :      4.38s CPU      4.18s WALL (      12 calls)
     mix_rho      :      0.05s CPU      0.03s WALL (      11 calls)

     Called by c_bands:
     init_us_2    :      1.27s CPU      0.64s WALL (     667 calls)
     cegterg      :     48.47s CPU     27.48s WALL (     319 calls)

     Called by sum_band:
     sum_band:wei :      0.02s CPU      0.01s WALL (      11 calls)
     sum_band:loo :      9.49s CPU      5.78s WALL (      11 calls)
     sum_band:buf :      0.06s CPU      0.03s WALL (     319 calls)
     sum_band:ini :      0.55s CPU      0.30s WALL (     319 calls)
     sum_band:cal :      0.27s CPU      0.23s WALL (     319 calls)
     sum_band:bec :      0.01s CPU      0.01s WALL (     319 calls)
     addusdens    :      2.37s CPU      1.27s WALL (      11 calls)
     addusd:skk   :      0.00s CPU      0.00s WALL (      33 calls)
     addusd:dgemm :      1.25s CPU      0.54s WALL (      33 calls)
     addusd:qvan2 :      0.93s CPU      0.58s WALL (      33 calls)

     Called by *egterg:
     cdiaghg      :      2.67s CPU      1.14s WALL (    1322 calls)
     cegterg:over :      1.16s CPU      0.47s WALL (    1003 calls)
     cegterg:upda :      0.92s CPU      0.36s WALL (    1003 calls)
     cegterg:last :      1.44s CPU      0.56s WALL (     616 calls)
     h_psi        :     41.83s CPU     25.03s WALL (    1351 calls)
     s_psi        :      0.76s CPU      0.34s WALL (    1351 calls)
     g_psi        :      0.43s CPU      0.16s WALL (    1003 calls)

     Called by h_psi:
     h_psi:calbec :      0.82s CPU      0.58s WALL (    1351 calls)
     vloc_psi     :     39.92s CPU     23.93s WALL (    1351 calls)
     add_vuspsi   :      0.80s CPU      0.40s WALL (    1351 calls)

     General routines
     calbec       :      1.09s CPU      0.80s WALL (    1670 calls)
     fft          :      0.16s CPU      0.10s WALL (     132 calls)
     ffts         :      0.02s CPU      0.01s WALL (      11 calls)
     fftw         :     41.90s CPU     25.19s WALL (   57052 calls)

     Parallel routines

     PAW routines
     PAW_pot      :      4.38s CPU      4.18s WALL (      12 calls)
     PAW_symme    :      0.01s CPU      0.01s WALL (      23 calls)

     PWSCF        :   1m13.61s CPU     44.69s WALL


   This run was terminated on:  13: 1:41  22May2024            

=------------------------------------------------------------------------------=
   JOB DONE.
=------------------------------------------------------------------------------=
