
     Program PWSCF v.6.7MaX starts on 22May2024 at 13: 4:12 

     This program is part of the open-source Quantum ESPRESSO suite
     for quantum simulation of materials; please cite
         "P. Giannozzi et al., J. Phys.:Condens. Matter 21 395502 (2009);
         "P. Giannozzi et al., J. Phys.:Condens. Matter 29 465901 (2017);
          URL http://www.quantum-espresso.org", 
     in publications or presentations arising from this work. More details at
     http://www.quantum-espresso.org/quote

     Parallel version (MPI), running on     1 processors

     MPI processes distributed on     1 nodes
     Waiting for input...
     Reading input from standard input

     Current dimensions of program PWSCF are:
     Max number of different atomic species (ntypx) = 10
     Max number of k-points (npk) =  40000
     Max angular momentum in pseudopotentials (lmaxx) =  3
     file Cu.UPF: wavefunction(s)  4S 3D renormalized
     file Pt.UPF: wavefunction(s)  6S 5D renormalized
     file Ni.UPF: wavefunction(s)  4S 3D renormalized

     Subspace diagonalization in iterative solution of the eigenvalue problem:
     a serial algorithm will be used


     G-vector sticks info
     --------------------
     sticks:   dense  smooth     PW     G-vecs:    dense   smooth      PW
     Sum         889     889    265                17573    17573    2891



     bravais-lattice index     =            2
     lattice parameter (alat)  =      11.4000  a.u.
     unit-cell volume          =     370.3860 (a.u.)^3
     number of atoms/cell      =            3
     number of atomic types    =            3
     number of electrons       =        31.00
     number of Kohn-Sham states=           30
     kinetic-energy cutoff     =      50.0000  Ry
     charge density cutoff     =     200.0000  Ry
     scf convergence threshold =      1.0E-07
     mixing beta               =       0.7000
     number of iterations used =            8  plain     mixing
     Exchange-correlation= SLA  PW   PBX  PBC
                           (   1   4   3   4   0   0   0)

     celldm(1)=  11.400000  celldm(2)=   0.000000  celldm(3)=   0.000000
     celldm(4)=   0.000000  celldm(5)=   0.000000  celldm(6)=   0.000000

     crystal axes: (cart. coord. in units of alat)
               a(1) = (  -0.500000   0.000000   0.500000 )  
               a(2) = (   0.000000   0.500000   0.500000 )  
               a(3) = (  -0.500000   0.500000   0.000000 )  

     reciprocal axes: (cart. coord. in units 2 pi/alat)
               b(1) = ( -1.000000 -1.000000  1.000000 )  
               b(2) = (  1.000000  1.000000  1.000000 )  
               b(3) = ( -1.000000  1.000000 -1.000000 )  


     PseudoPot. # 1 for Cu read from file:
     ././Cu.UPF
     MD5 check sum: cfffd1f38ee05704b3e17f46f1730a6f
     Pseudo is Projector augmented-wave + core cor, Zval = 11.0
     Generated using &quot;atomic&quot; code by A. Dal Corso  v.6.3
     Shape of augmentation charge: PSQ
     Using radial grid of 1199 points,  6 beta functions with: 
                l(1) =   0
                l(2) =   0
                l(3) =   1
                l(4) =   1
                l(5) =   2
                l(6) =   2
     Q(r) pseudized with 0 coefficients 


     PseudoPot. # 2 for Pt read from file:
     ././Pt.UPF
     MD5 check sum: c5224e9cd7a5e36e81f2def9f50bb494
     Pseudo is Projector augmented-wave + core cor, Zval = 10.0
     Generated using &quot;atomic&quot; code by A. Dal Corso  v.6.3
     Shape of augmentation charge: PSQ
     Using radial grid of 1277 points,  6 beta functions with: 
                l(1) =   0
                l(2) =   0
                l(3) =   1
                l(4) =   1
                l(5) =   2
                l(6) =   2
     Q(r) pseudized with 0 coefficients 


     PseudoPot. # 3 for Ni read from file:
     ././Ni.UPF
     MD5 check sum: 5bc40517020091042a126ac2b4ecef1e
     Pseudo is Projector augmented-wave + core cor, Zval = 10.0
     Generated using "atomic" code by A. Dal Corso  v.5.0.2 svn rev. 9415
     Shape of augmentation charge: PSQ
     Using radial grid of 1195 points,  6 beta functions with: 
                l(1) =   0
                l(2) =   0
                l(3) =   1
                l(4) =   1
                l(5) =   2
                l(6) =   2
     Q(r) pseudized with 0 coefficients 


     atomic species   valence    mass     pseudopotential
        Cu            11.00    63.54600     Cu( 1.00)
        Pt            10.00   195.08000     Pt( 1.00)
        Ni            10.00    58.69000     Ni( 1.00)

     24 Sym. Ops. (no inversion) found


                                    s                        frac. trans.

      isym =  1     identity                                     

 cryst.   s( 1) = (     1          0          0      )
                  (     0          1          0      )
                  (     0          0          1      )

 cart.    s( 1) = (  1.0000000  0.0000000  0.0000000 )
                  (  0.0000000  1.0000000  0.0000000 )
                  (  0.0000000  0.0000000  1.0000000 )


      isym =  2     180 deg rotation - cart. axis [0,0,1]        

 cryst.   s( 2) = (     0          1         -1      )
                  (     1          0         -1      )
                  (     0          0         -1      )

 cart.    s( 2) = ( -1.0000000  0.0000000  0.0000000 )
                  (  0.0000000 -1.0000000  0.0000000 )
                  (  0.0000000  0.0000000  1.0000000 )


      isym =  3     180 deg rotation - cart. axis [0,1,0]        

 cryst.   s( 3) = (    -1          0          0      )
                  (    -1          0          1      )
                  (    -1          1          0      )

 cart.    s( 3) = ( -1.0000000  0.0000000  0.0000000 )
                  (  0.0000000  1.0000000  0.0000000 )
                  (  0.0000000  0.0000000 -1.0000000 )


      isym =  4     180 deg rotation - cart. axis [1,0,0]        

 cryst.   s( 4) = (     0         -1          1      )
                  (     0         -1          0      )
                  (     1         -1          0      )

 cart.    s( 4) = (  1.0000000  0.0000000  0.0000000 )
                  (  0.0000000 -1.0000000  0.0000000 )
                  (  0.0000000  0.0000000 -1.0000000 )


      isym =  5     120 deg rotation - cart. axis [-1,-1,-1]     

 cryst.   s( 5) = (    -1          0          1      )
                  (    -1          1          0      )
                  (    -1          0          0      )

 cart.    s( 5) = (  0.0000000  1.0000000  0.0000000 )
                  (  0.0000000  0.0000000  1.0000000 )
                  (  1.0000000  0.0000000  0.0000000 )


      isym =  6     120 deg rotation - cart. axis [-1,1,1]       

 cryst.   s( 6) = (     0          1          0      )
                  (     0          0          1      )
                  (     1          0          0      )

 cart.    s( 6) = (  0.0000000 -1.0000000  0.0000000 )
                  (  0.0000000  0.0000000  1.0000000 )
                  ( -1.0000000  0.0000000  0.0000000 )


      isym =  7     120 deg rotation - cart. axis [1,1,-1]       

 cryst.   s( 7) = (     1          0         -1      )
                  (     0          0         -1      )
                  (     0          1         -1      )

 cart.    s( 7) = (  0.0000000  1.0000000  0.0000000 )
                  (  0.0000000  0.0000000 -1.0000000 )
                  ( -1.0000000  0.0000000  0.0000000 )


      isym =  8     120 deg rotation - cart. axis [1,-1,1]       

 cryst.   s( 8) = (     0         -1          0      )
                  (     1         -1          0      )
                  (     0         -1          1      )

 cart.    s( 8) = (  0.0000000 -1.0000000  0.0000000 )
                  (  0.0000000  0.0000000 -1.0000000 )
                  (  1.0000000  0.0000000  0.0000000 )


      isym =  9     120 deg rotation - cart. axis [1,1,1]        

 cryst.   s( 9) = (     0          0         -1      )
                  (     0          1         -1      )
                  (     1          0         -1      )

 cart.    s( 9) = (  0.0000000  0.0000000  1.0000000 )
                  (  1.0000000  0.0000000  0.0000000 )
                  (  0.0000000  1.0000000  0.0000000 )


      isym = 10     120 deg rotation - cart. axis [-1,1,-1]      

 cryst.   s(10) = (    -1          1          0      )
                  (    -1          0          0      )
                  (    -1          0          1      )

 cart.    s(10) = (  0.0000000  0.0000000  1.0000000 )
                  ( -1.0000000  0.0000000  0.0000000 )
                  (  0.0000000 -1.0000000  0.0000000 )


      isym = 11     120 deg rotation - cart. axis [1,-1,-1]      

 cryst.   s(11) = (     0          0          1      )
                  (     1          0          0      )
                  (     0          1          0      )

 cart.    s(11) = (  0.0000000  0.0000000 -1.0000000 )
                  ( -1.0000000  0.0000000  0.0000000 )
                  (  0.0000000  1.0000000  0.0000000 )


      isym = 12     120 deg rotation - cart. axis [-1,-1,1]      

 cryst.   s(12) = (     1         -1          0      )
                  (     0         -1          1      )
                  (     0         -1          0      )

 cart.    s(12) = (  0.0000000  0.0000000 -1.0000000 )
                  (  1.0000000  0.0000000  0.0000000 )
                  (  0.0000000 -1.0000000  0.0000000 )


      isym = 13     inv. 180 deg rotation - cart. axis [1,1,0]   

 cryst.   s(13) = (     0          1          0      )
                  (     1          0          0      )
                  (     0          0          1      )

 cart.    s(13) = (  0.0000000 -1.0000000  0.0000000 )
                  ( -1.0000000  0.0000000  0.0000000 )
                  (  0.0000000  0.0000000  1.0000000 )


      isym = 14     inv. 180 deg rotation - cart. axis [1,-1,0]  

 cryst.   s(14) = (     1          0         -1      )
                  (     0          1         -1      )
                  (     0          0         -1      )

 cart.    s(14) = (  0.0000000  1.0000000  0.0000000 )
                  (  1.0000000  0.0000000  0.0000000 )
                  (  0.0000000  0.0000000  1.0000000 )


      isym = 15     inv.  90 deg rotation - cart. axis [0,0,-1]  

 cryst.   s(15) = (     0         -1          0      )
                  (     0         -1          1      )
                  (     1         -1          0      )

 cart.    s(15) = (  0.0000000 -1.0000000  0.0000000 )
                  (  1.0000000  0.0000000  0.0000000 )
                  (  0.0000000  0.0000000 -1.0000000 )


      isym = 16     inv.  90 deg rotation - cart. axis [0,0,1]   

 cryst.   s(16) = (    -1          0          1      )
                  (    -1          0          0      )
                  (    -1          1          0      )

 cart.    s(16) = (  0.0000000  1.0000000  0.0000000 )
                  ( -1.0000000  0.0000000  0.0000000 )
                  (  0.0000000  0.0000000 -1.0000000 )


      isym = 17     inv. 180 deg rotation - cart. axis [1,0,1]   

 cryst.   s(17) = (     1          0          0      )
                  (     0          0          1      )
                  (     0          1          0      )

 cart.    s(17) = (  0.0000000  0.0000000 -1.0000000 )
                  (  0.0000000  1.0000000  0.0000000 )
                  ( -1.0000000  0.0000000  0.0000000 )


      isym = 18     inv. 180 deg rotation - cart. axis [-1,0,1]  

 cryst.   s(18) = (    -1          0          0      )
                  (    -1          1          0      )
                  (    -1          0          1      )

 cart.    s(18) = (  0.0000000  0.0000000  1.0000000 )
                  (  0.0000000  1.0000000  0.0000000 )
                  (  1.0000000  0.0000000  0.0000000 )


      isym = 19     inv.  90 deg rotation - cart. axis [0,1,0]   

 cryst.   s(19) = (     0         -1          1      )
                  (     1         -1          0      )
                  (     0         -1          0      )

 cart.    s(19) = (  0.0000000  0.0000000 -1.0000000 )
                  (  0.0000000 -1.0000000  0.0000000 )
                  (  1.0000000  0.0000000  0.0000000 )


      isym = 20     inv.  90 deg rotation - cart. axis [0,-1,0]  

 cryst.   s(20) = (     0          1         -1      )
                  (     0          0         -1      )
                  (     1          0         -1      )

 cart.    s(20) = (  0.0000000  0.0000000  1.0000000 )
                  (  0.0000000 -1.0000000  0.0000000 )
                  ( -1.0000000  0.0000000  0.0000000 )


      isym = 21     inv. 180 deg rotation - cart. axis [0,1,1]   

 cryst.   s(21) = (     1         -1          0      )
                  (     0         -1          0      )
                  (     0         -1          1      )

 cart.    s(21) = (  1.0000000  0.0000000  0.0000000 )
                  (  0.0000000  0.0000000 -1.0000000 )
                  (  0.0000000 -1.0000000  0.0000000 )


      isym = 22     inv. 180 deg rotation - cart. axis [0,1,-1]  

 cryst.   s(22) = (     0          0          1      )
                  (     0          1          0      )
                  (     1          0          0      )

 cart.    s(22) = (  1.0000000  0.0000000  0.0000000 )
                  (  0.0000000  0.0000000  1.0000000 )
                  (  0.0000000  1.0000000  0.0000000 )


      isym = 23     inv.  90 deg rotation - cart. axis [-1,0,0]  

 cryst.   s(23) = (     0          0         -1      )
                  (     1          0         -1      )
                  (     0          1         -1      )

 cart.    s(23) = ( -1.0000000  0.0000000  0.0000000 )
                  (  0.0000000  0.0000000 -1.0000000 )
                  (  0.0000000  1.0000000  0.0000000 )


      isym = 24     inv.  90 deg rotation - cart. axis [1,0,0]   

 cryst.   s(24) = (    -1          1          0      )
                  (    -1          0          1      )
                  (    -1          0          0      )

 cart.    s(24) = ( -1.0000000  0.0000000  0.0000000 )
                  (  0.0000000  0.0000000  1.0000000 )
                  (  0.0000000 -1.0000000  0.0000000 )


     point group T_d (-43m) 
     there are  5 classes
     the character table:

       E     8C3   3C2   6S4   6s_d 
A_1    1.00  1.00  1.00  1.00  1.00
A_2    1.00  1.00  1.00 -1.00 -1.00
E      2.00 -1.00  2.00  0.00  0.00
T_1    3.00  0.00 -1.00  1.00 -1.00
T_2    3.00  0.00 -1.00 -1.00  1.00

     the symmetry operations in each class and the name of the first element:

     E        1
          identity                                               
     8C3      5    7    8    6   12    9   10   11
          120 deg rotation - cart. axis [-1,-1,-1]               
     3C2      2    3    4
          180 deg rotation - cart. axis [0,0,1]                  
     6S4     15   16   20   19   23   24
          inv.  90 deg rotation - cart. axis [0,0,-1]            
     6s_d    13   14   17   18   21   22
          inv. 180 deg rotation - cart. axis [1,1,0]             

   Cartesian axes

     site n.     atom                  positions (alat units)
         1           Cu  tau(   1) = (   0.0000000   0.0000000   0.0000000  )
         2           Pt  tau(   2) = (   0.5000000   0.5000000   0.5000000  )
         3           Ni  tau(   3) = (   0.2500000   0.2500000   0.2500000  )

   Crystallographic axes

     site n.     atom                  positions (cryst. coord.)
         1           Cu  tau(   1) = (  0.0000000  0.0000000  0.0000000  )
         2           Pt  tau(   2) = ( -0.5000000  1.5000000 -0.5000000  )
         3           Ni  tau(   3) = ( -0.2500000  0.7500000 -0.2500000  )

     number of k points=    29  Methfessel-Paxton smearing, width (Ry)=  0.0050
                       cart. coord. in units 2pi/alat
        k(    1) = (   0.0000000   0.0000000   0.0000000), wk =   0.0039062
        k(    2) = (  -0.1250000   0.1250000  -0.1250000), wk =   0.0312500
        k(    3) = (  -0.2500000   0.2500000  -0.2500000), wk =   0.0312500
        k(    4) = (  -0.3750000   0.3750000  -0.3750000), wk =   0.0312500
        k(    5) = (   0.5000000  -0.5000000   0.5000000), wk =   0.0156250
        k(    6) = (   0.0000000   0.2500000   0.0000000), wk =   0.0234375
        k(    7) = (  -0.1250000   0.3750000  -0.1250000), wk =   0.0937500
        k(    8) = (  -0.2500000   0.5000000  -0.2500000), wk =   0.0937500
        k(    9) = (   0.6250000  -0.3750000   0.6250000), wk =   0.0937500
        k(   10) = (   0.5000000  -0.2500000   0.5000000), wk =   0.0937500
        k(   11) = (   0.3750000  -0.1250000   0.3750000), wk =   0.0937500
        k(   12) = (   0.2500000   0.0000000   0.2500000), wk =   0.0468750
        k(   13) = (   0.0000000   0.5000000   0.0000000), wk =   0.0234375
        k(   14) = (  -0.1250000   0.6250000  -0.1250000), wk =   0.0937500
        k(   15) = (   0.7500000  -0.2500000   0.7500000), wk =   0.0937500
        k(   16) = (   0.6250000  -0.1250000   0.6250000), wk =   0.0937500
        k(   17) = (   0.5000000   0.0000000   0.5000000), wk =   0.0468750
        k(   18) = (   0.0000000   0.7500000   0.0000000), wk =   0.0234375
        k(   19) = (   0.8750000  -0.1250000   0.8750000), wk =   0.0937500
        k(   20) = (   0.7500000   0.0000000   0.7500000), wk =   0.0468750
        k(   21) = (   0.0000000  -1.0000000   0.0000000), wk =   0.0117188
        k(   22) = (  -0.2500000   0.5000000   0.0000000), wk =   0.0937500
        k(   23) = (   0.6250000  -0.3750000   0.8750000), wk =   0.1875000
        k(   24) = (   0.5000000  -0.2500000   0.7500000), wk =   0.0937500
        k(   25) = (   0.7500000  -0.2500000   1.0000000), wk =   0.0937500
        k(   26) = (   0.6250000  -0.1250000   0.8750000), wk =   0.1875000
        k(   27) = (   0.5000000   0.0000000   0.7500000), wk =   0.0937500
        k(   28) = (  -0.2500000  -1.0000000   0.0000000), wk =   0.0468750
        k(   29) = (  -0.5000000  -1.0000000   0.0000000), wk =   0.0234375

                       cryst. coord.
        k(    1) = (   0.0000000   0.0000000   0.0000000), wk =   0.0039062
        k(    2) = (   0.0000000   0.0000000   0.1250000), wk =   0.0312500
        k(    3) = (   0.0000000   0.0000000   0.2500000), wk =   0.0312500
        k(    4) = (   0.0000000   0.0000000   0.3750000), wk =   0.0312500
        k(    5) = (   0.0000000   0.0000000  -0.5000000), wk =   0.0156250
        k(    6) = (   0.0000000   0.1250000   0.1250000), wk =   0.0234375
        k(    7) = (   0.0000000   0.1250000   0.2500000), wk =   0.0937500
        k(    8) = (   0.0000000   0.1250000   0.3750000), wk =   0.0937500
        k(    9) = (   0.0000000   0.1250000  -0.5000000), wk =   0.0937500
        k(   10) = (   0.0000000   0.1250000  -0.3750000), wk =   0.0937500
        k(   11) = (   0.0000000   0.1250000  -0.2500000), wk =   0.0937500
        k(   12) = (   0.0000000   0.1250000  -0.1250000), wk =   0.0468750
        k(   13) = (   0.0000000   0.2500000   0.2500000), wk =   0.0234375
        k(   14) = (   0.0000000   0.2500000   0.3750000), wk =   0.0937500
        k(   15) = (   0.0000000   0.2500000  -0.5000000), wk =   0.0937500
        k(   16) = (   0.0000000   0.2500000  -0.3750000), wk =   0.0937500
        k(   17) = (   0.0000000   0.2500000  -0.2500000), wk =   0.0468750
        k(   18) = (   0.0000000   0.3750000   0.3750000), wk =   0.0234375
        k(   19) = (   0.0000000   0.3750000  -0.5000000), wk =   0.0937500
        k(   20) = (   0.0000000   0.3750000  -0.3750000), wk =   0.0468750
        k(   21) = (   0.0000000  -0.5000000  -0.5000000), wk =   0.0117188
        k(   22) = (   0.1250000   0.2500000   0.3750000), wk =   0.0937500
        k(   23) = (   0.1250000   0.2500000  -0.5000000), wk =   0.1875000
        k(   24) = (   0.1250000   0.2500000  -0.3750000), wk =   0.0937500
        k(   25) = (   0.1250000   0.3750000  -0.5000000), wk =   0.0937500
        k(   26) = (   0.1250000   0.3750000  -0.3750000), wk =   0.1875000
        k(   27) = (   0.1250000   0.3750000  -0.2500000), wk =   0.0937500
        k(   28) = (   0.1250000  -0.5000000  -0.3750000), wk =   0.0468750
        k(   29) = (   0.2500000  -0.5000000  -0.2500000), wk =   0.0234375

     Dense  grid:    17573 G-vectors     FFT dimensions: (  40,  40,  40)

     Dynamical RAM for                 wfc:       1.01 MB

     Dynamical RAM for     wfc (w. buffer):      30.36 MB

     Dynamical RAM for           str. fact:       0.80 MB

     Dynamical RAM for           local pot:       0.00 MB

     Dynamical RAM for          nlocal pot:       1.82 MB

     Dynamical RAM for                qrad:       3.41 MB

     Dynamical RAM for          rho,v,vnew:       2.27 MB

     Dynamical RAM for               rhoin:       0.76 MB

     Dynamical RAM for            rho*nmix:       4.29 MB

     Dynamical RAM for           G-vectors:       1.14 MB

     Dynamical RAM for          h,s,v(r/c):       0.16 MB

     Dynamical RAM for          <psi|beta>:       0.02 MB

     Dynamical RAM for                 psi:       2.02 MB

     Dynamical RAM for                hpsi:       2.02 MB

     Dynamical RAM for                spsi:       2.02 MB

     Dynamical RAM for      wfcinit/wfcrot:       2.05 MB

     Dynamical RAM for           addusdens:      50.14 MB

     Estimated static dynamical RAM per process >      48.37 MB

     Estimated max dynamical RAM per process >      98.51 MB

     Check: negative core charge=   -0.000004

     Initial potential from superposition of free atoms

     starting charge   30.99935, renormalised to   31.00000
     Starting wfcs are   27 randomized atomic wfcs +    3 random wfcs
     Checking if some PAW data can be deallocated... 

     total cpu time spent up to now is        3.0 secs

     Self-consistent Calculation

     iteration #  1     ecut=    50.00 Ry     beta= 0.70
     Davidson diagonalization with overlap
     ethr =  1.00E-02,  avg # of iterations =  5.6

     total cpu time spent up to now is        9.5 secs

     total energy              =   -1144.43581774 Ry
     estimated scf accuracy    <       2.00009033 Ry

     iteration #  2     ecut=    50.00 Ry     beta= 0.70
     Davidson diagonalization with overlap
     ethr =  6.45E-03,  avg # of iterations =  2.2

     total cpu time spent up to now is       15.4 secs

     total energy              =   -1142.76765312 Ry
     estimated scf accuracy    <      52.92007129 Ry

     iteration #  3     ecut=    50.00 Ry     beta= 0.70
     Davidson diagonalization with overlap
     ethr =  6.45E-03,  avg # of iterations =  2.0

     total cpu time spent up to now is       20.5 secs

     total energy              =   -1145.89356498 Ry
     estimated scf accuracy    <       0.71767331 Ry

     iteration #  4     ecut=    50.00 Ry     beta= 0.70
     Davidson diagonalization with overlap
     ethr =  2.32E-03,  avg # of iterations =  1.1

     total cpu time spent up to now is       25.0 secs

     total energy              =   -1145.97265837 Ry
     estimated scf accuracy    <       0.21999563 Ry

     iteration #  5     ecut=    50.00 Ry     beta= 0.70
     Davidson diagonalization with overlap
     ethr =  7.10E-04,  avg # of iterations =  1.2

     total cpu time spent up to now is       29.5 secs

     total energy              =   -1145.97672839 Ry
     estimated scf accuracy    <       0.06431389 Ry

     iteration #  6     ecut=    50.00 Ry     beta= 0.70
     Davidson diagonalization with overlap
     ethr =  2.07E-04,  avg # of iterations =  1.5

     total cpu time spent up to now is       34.0 secs

     total energy              =   -1145.98109341 Ry
     estimated scf accuracy    <       0.00283994 Ry

     iteration #  7     ecut=    50.00 Ry     beta= 0.70
     Davidson diagonalization with overlap
     ethr =  9.16E-06,  avg # of iterations =  8.0

     total cpu time spent up to now is       40.3 secs

     total energy              =   -1145.98191238 Ry
     estimated scf accuracy    <       0.00383744 Ry

     iteration #  8     ecut=    50.00 Ry     beta= 0.70
     Davidson diagonalization with overlap
     ethr =  9.16E-06,  avg # of iterations =  1.0

     total cpu time spent up to now is       44.8 secs

     total energy              =   -1145.98219812 Ry
     estimated scf accuracy    <       0.00006651 Ry

     iteration #  9     ecut=    50.00 Ry     beta= 0.70
     Davidson diagonalization with overlap
     ethr =  2.15E-07,  avg # of iterations =  3.9

     total cpu time spent up to now is       50.2 secs

     total energy              =   -1145.98222197 Ry
     estimated scf accuracy    <       0.00002247 Ry

     iteration # 10     ecut=    50.00 Ry     beta= 0.70
     Davidson diagonalization with overlap
     ethr =  7.25E-08,  avg # of iterations =  1.2

     total cpu time spent up to now is       54.7 secs

     total energy              =   -1145.98222103 Ry
     estimated scf accuracy    <       0.00001493 Ry

     iteration # 11     ecut=    50.00 Ry     beta= 0.70
     Davidson diagonalization with overlap
     ethr =  4.82E-08,  avg # of iterations =  1.2

     total cpu time spent up to now is       59.2 secs

     End of self-consistent calculation

          k = 0.0000 0.0000 0.0000 (  2229 PWs)   bands (ev):

     1.6238   5.1816   5.1816   5.5192   5.5192   5.5192   6.4911   6.4911
     6.4911   7.5398   7.5398   7.7928   7.7928   7.7928   8.2168   8.2168
    15.3851  15.3851  15.3851  16.1791  17.5173  17.6517  17.6517  17.6517
    20.1611  20.1611  20.1611  23.9119  24.2557  24.2557

     occupation numbers 
     1.0000   1.0000   1.0000   1.0000   1.0000   1.0000   1.0000   1.0000
     1.0000   1.0000   1.0000   1.0000   1.0000   1.0000   1.0244   1.0244
    -0.0000  -0.0000  -0.0000  -0.0000  -0.0000  -0.0000  -0.0000  -0.0000
    -0.0000  -0.0000  -0.0000  -0.0000  -0.0000  -0.0000

          k =-0.1250 0.1250-0.1250 (  2193 PWs)   bands (ev):

     1.8339   5.2359   5.2359   5.4832   5.5698   5.5698   6.4702   6.4702
     6.5457   7.4511   7.4511   7.6162   7.7766   7.7766   8.2286   8.2286
    13.4340  15.2555  15.2555  16.4808  17.6363  17.6363  17.7140  18.4186
    20.1860  20.1860  21.0134  24.9398  24.9398  25.0857

     occupation numbers 
     1.0000   1.0000   1.0000   1.0000   1.0000   1.0000   1.0000   1.0000
     1.0000   1.0000   1.0000   1.0000   1.0000   1.0000   1.0319   1.0319
    -0.0000  -0.0000  -0.0000  -0.0000  -0.0000  -0.0000  -0.0000  -0.0000
    -0.0000  -0.0000  -0.0000  -0.0000  -0.0000  -0.0000

          k =-0.2500 0.2500-0.2500 (  2196 PWs)   bands (ev):

     2.4395   5.3879   5.3879   5.4360   5.6957   5.6957   6.4208   6.4208
     6.6208   7.1710   7.2016   7.2016   7.7784   7.7784   8.2284   8.2284
    11.1396  14.9887  14.9887  16.0509  17.3511  17.3511  17.8921  19.4573
    20.8194  20.8194  23.8161  26.4831  26.4831  27.6446

     occupation numbers 
     1.0000   1.0000   1.0000   1.0000   1.0000   1.0000   1.0000   1.0000
     1.0000   1.0000   1.0000   1.0000   1.0000   1.0000   1.0317   1.0317
    -0.0000  -0.0000  -0.0000  -0.0000  -0.0000  -0.0000  -0.0000  -0.0000
    -0.0000  -0.0000  -0.0000  -0.0000  -0.0000  -0.0000

          k =-0.3750 0.3750-0.3750 (  2211 PWs)   bands (ev):

     3.3252   5.4248   5.5883   5.5883   5.8304   5.8304   6.3161   6.3799
     6.3799   6.8935   6.8935   6.8982   7.8103   7.8103   8.1970   8.1970
     9.4038  14.7482  14.7482  15.7746  16.9819  16.9819  17.5427  21.5432
    22.1284  22.1284  26.6389  26.7473  26.7474  28.1482

     occupation numbers 
     1.0000   1.0000   1.0000   1.0000   1.0000   1.0000   1.0000   1.0000
     1.0000   1.0000   1.0000   1.0000   1.0000   1.0000   1.0122   1.0122
    -0.0000  -0.0000  -0.0000  -0.0000  -0.0000  -0.0000  -0.0000  -0.0000
    -0.0000  -0.0000  -0.0000  -0.0000  -0.0000  -0.0000

          k = 0.5000-0.5000 0.5000 (  2186 PWs)   bands (ev):

     3.9476   5.3480   5.6976   5.6976   5.8911   5.8911   5.9349   6.3785
     6.3785   6.7225   6.7225   6.8897   7.8331   7.8331   8.1734   8.1734
     8.7409  14.6500  14.6500  15.6791  16.8360  16.8360  17.4225  23.2186
    23.2186  23.5094  25.0253  25.4384  25.4384  30.0463

     occupation numbers 
     1.0000   1.0000   1.0000   1.0000   1.0000   1.0000   1.0000   1.0000
     1.0000   1.0000   1.0000   1.0000   1.0000   1.0000   1.0038   1.0038
    -0.0000  -0.0000  -0.0000  -0.0000  -0.0000  -0.0000  -0.0000  -0.0000
    -0.0000  -0.0000  -0.0000  -0.0000  -0.0000  -0.0000

          k = 0.0000 0.2500 0.0000 (  2193 PWs)   bands (ev):

     1.9027   5.2328   5.2598   5.4457   5.5979   5.5979   6.3990   6.5403
     6.5403   7.3349   7.5321   7.7231   7.7268   7.7268   8.1547   8.2702
    14.2016  14.3178  14.3178  15.9098  17.5392  18.4249  18.4420  18.4420
    20.1881  21.0713  21.0713  24.1207  24.2489  26.6707

     occupation numbers 
     1.0000   1.0000   1.0000   1.0000   1.0000   1.0000   1.0000   1.0000
     1.0000   1.0000   1.0000   1.0000   1.0000   1.0000   1.0012   0.9861
    -0.0000  -0.0000  -0.0000  -0.0000  -0.0000  -0.0000  -0.0000  -0.0000
    -0.0000  -0.0000  -0.0000  -0.0000  -0.0000  -0.0000

          k =-0.1250 0.3750-0.1250 (  2204 PWs)   bands (ev):

     2.3730   5.2800   5.3810   5.4106   5.6989   5.7189   6.2610   6.5642
     6.6054   7.1578   7.3792   7.4490   7.7336   7.7682   8.1108   8.2877
    11.9642  13.6726  14.5335  15.3257  17.4345  18.3274  18.7467  19.6030
    20.9333  21.8296  22.9549  24.9724  25.3183  28.7739

     occupation numbers 
     1.0000   1.0000   1.0000   1.0000   1.0000   1.0000   1.0000   1.0000
     1.0000   1.0000   1.0000   1.0000   1.0000   1.0000   1.0000   0.8853
    -0.0000  -0.0000  -0.0000  -0.0000  -0.0000  -0.0000  -0.0000  -0.0000
    -0.0000  -0.0000  -0.0000  -0.0000  -0.0000  -0.0000

          k =-0.2500 0.5000-0.2500 (  2215 PWs)   bands (ev):

     3.1685   5.2857   5.4674   5.5587   5.8239   5.9022   6.1518   6.5389
     6.5610   6.9530   7.0534   7.1208   7.7864   7.7933   8.1073   8.2710
     9.9413  13.4282  13.8012  15.3824  17.6633  18.4696  18.9107  19.5726
    22.5207  22.8924  25.7614  25.8646  27.0879  28.0908

     occupation numbers 
     1.0000   1.0000   1.0000   1.0000   1.0000   1.0000   1.0000   1.0000
     1.0000   1.0000   1.0000   1.0000   1.0000   1.0000   1.0000   0.9832
    -0.0000  -0.0000  -0.0000  -0.0000  -0.0000  -0.0000  -0.0000  -0.0000
    -0.0000  -0.0000  -0.0000  -0.0000  -0.0000  -0.0000

          k = 0.6250-0.3750 0.6250 (  2208 PWs)   bands (ev):

     3.9854   5.1502   5.5570   5.6874   5.8777   5.9434   6.2716   6.3846
     6.4753   6.7358   6.8066   6.9861   7.7915   7.8396   8.1777   8.1962
     8.7989  13.1198  13.6405  15.4566  17.5204  18.0136  19.2213  21.0679
    23.3467  23.6962  25.2106  25.4365  27.7009  28.7889

     occupation numbers 
     1.0000   1.0000   1.0000   1.0000   1.0000   1.0000   1.0000   1.0000
     1.0000   1.0000   1.0000   1.0000   1.0000   1.0000   1.0049   1.0118
    -0.0000  -0.0000  -0.0000  -0.0000  -0.0000  -0.0000  -0.0000  -0.0000
    -0.0000  -0.0000  -0.0000  -0.0000  -0.0000  -0.0000

          k = 0.5000-0.2500 0.5000 (  2221 PWs)   bands (ev):

     3.7559   5.2425   5.5749   5.6569   5.9074   5.9549   6.1739   6.3202
     6.5242   6.7540   6.8406   7.0427   7.7725   7.8614   8.0942   8.2683
     9.0759  12.7309  14.2989  15.6934  17.3972  17.5944  19.4283  21.4392
    21.7206  23.4221  25.6585  26.7820  27.1689  28.1915

     occupation numbers 
     1.0000   1.0000   1.0000   1.0000   1.0000   1.0000   1.0000   1.0000
     1.0000   1.0000   1.0000   1.0000   1.0000   1.0000   1.0000   0.9935
    -0.0000  -0.0000  -0.0000  -0.0000  -0.0000  -0.0000  -0.0000  -0.0000
    -0.0000  -0.0000  -0.0000  -0.0000  -0.0000  -0.0000

          k = 0.3750-0.1250 0.3750 (  2205 PWs)   bands (ev):

     2.8782   5.3437   5.4473   5.4879   5.8044   5.8499   6.2893   6.4027
     6.5802   7.0072   7.0226   7.2641   7.7680   7.8128   8.0711   8.3125
    10.5805  12.7219  15.3049  16.1791  17.1368  17.3954  18.9781  20.2526
    20.2714  23.3743  24.6622  25.6860  26.7763  28.3609

     occupation numbers 
     1.0000   1.0000   1.0000   1.0000   1.0000   1.0000   1.0000   1.0000
     1.0000   1.0000   1.0000   1.0000   1.0000   1.0000   1.0000   0.6367
    -0.0000  -0.0000  -0.0000  -0.0000  -0.0000  -0.0000  -0.0000  -0.0000
    -0.0000  -0.0000  -0.0000  -0.0000  -0.0000  -0.0000

          k = 0.2500 0.0000 0.2500 (  2201 PWs)   bands (ev):

     2.1752   5.3145   5.3187   5.4130   5.6444   5.6823   6.3724   6.5321
     6.5584   7.2644   7.2928   7.5232   7.7428   7.7783   8.1398   8.2949
    12.4919  13.3459  16.1896  16.6469  16.8899  17.2873  17.9372  19.6875
    19.7335  21.7800  22.3986  24.2492  26.4766  26.9995

     occupation numbers 
     1.0000   1.0000   1.0000   1.0000   1.0000   1.0000   1.0000   1.0000
     1.0000   1.0000   1.0000   1.0000   1.0000   1.0000   1.0004   0.8244
    -0.0000  -0.0000  -0.0000  -0.0000  -0.0000  -0.0000  -0.0000  -0.0000
    -0.0000  -0.0000  -0.0000  -0.0000  -0.0000  -0.0000

          k = 0.0000 0.5000 0.0000 (  2221 PWs)   bands (ev):

     2.6877   5.1574   5.3916   5.4678   5.7693   5.7693   6.0769   6.6617
     6.6617   7.1359   7.5065   7.6615   7.6708   7.6708   7.9914   8.2838
    12.6324  12.6324  13.1074  13.6022  16.7981  19.9043  19.9043  21.5213
    22.1840  23.0736  23.0736  24.2363  24.3795  29.5545

     occupation numbers 
     1.0000   1.0000   1.0000   1.0000   1.0000   1.0000   1.0000   1.0000
     1.0000   1.0000   1.0000   1.0000   1.0000   1.0000   1.0000   0.9138
    -0.0000  -0.0000  -0.0000  -0.0000  -0.0000  -0.0000  -0.0000  -0.0000
    -0.0000  -0.0000  -0.0000  -0.0000  -0.0000  -0.0000

          k =-0.1250 0.6250-0.1250 (  2208 PWs)   bands (ev):

     3.3248   5.0894   5.3043   5.6081   5.8692   5.8755   6.0525   6.6654
     6.6878   7.0931   7.3206   7.4732   7.7250   7.7949   8.0075   8.2925
    10.6822  12.0893  12.1174  14.1997  17.0740  20.0016  20.2836  22.1340
    23.5131  23.9411  24.8454  24.8572  26.0448  27.9684

     occupation numbers 
     1.0000   1.0000   1.0000   1.0000   1.0000   1.0000   1.0000   1.0000
     1.0000   1.0000   1.0000   1.0000   1.0000   1.0000   1.0000   0.8462
    -0.0000  -0.0000  -0.0000  -0.0000  -0.0000  -0.0000  -0.0000  -0.0000
    -0.0000  -0.0000  -0.0000  -0.0000  -0.0000  -0.0000

          k = 0.7500-0.2500 0.7500 (  2210 PWs)   bands (ev):

     4.1032   4.9704   5.2842   5.7025   5.8020   6.0245   6.2701   6.5790
     6.7846   6.9614   6.9844   7.3165   7.6849   7.9164   8.1931   8.2821
     9.0270  11.2373  12.1864  14.7644  18.3651  19.6432  19.9846  21.9445
    23.6340  24.0138  25.5145  25.6673  27.5393  28.6360

     occupation numbers 
     1.0000   1.0000   1.0000   1.0000   1.0000   1.0000   1.0000   1.0000
     1.0000   1.0000   1.0000   1.0000   1.0000   1.0000   1.0103   0.9249
    -0.0000  -0.0000  -0.0000  -0.0000  -0.0000  -0.0000  -0.0000  -0.0000
    -0.0000  -0.0000  -0.0000  -0.0000  -0.0000  -0.0000

          k = 0.6250-0.1250 0.6250 (  2227 PWs)   bands (ev):

     4.3011   4.9854   5.4400   5.6656   5.7081   6.1367   6.3645   6.4793
     6.6237   6.7845   6.9750   7.1955   7.6889   7.8755   8.1913   8.3156
     8.9471  10.6777  12.8961  15.1255  18.9522  19.5225  20.5156  21.3049
    21.6566  22.8184  26.1202  27.2636  28.1541  28.7538

     occupation numbers 
     1.0000   1.0000   1.0000   1.0000   1.0000   1.0000   1.0000   1.0000
     1.0000   1.0000   1.0000   1.0000   1.0000   1.0000   1.0095   0.5992
    -0.0000  -0.0000  -0.0000  -0.0000  -0.0000  -0.0000  -0.0000  -0.0000
    -0.0000  -0.0000  -0.0000  -0.0000  -0.0000  -0.0000

          k = 0.5000 0.0000 0.5000 (  2217 PWs)   bands (ev):

     3.5959   5.2292   5.4613   5.6267   5.8940   6.0247   6.2490   6.2759
     6.6032   6.7836   6.9581   7.2724   7.7277   7.8835   8.0043   8.3476
    10.1653  10.7705  14.0368  15.5671  18.6228  18.6328  19.2402  20.3473
    22.1978  23.3187  24.7593  26.7914  27.1814  28.8910

     occupation numbers 
     1.0000   1.0000   1.0000   1.0000   1.0000   1.0000   1.0000   1.0000
     1.0000   1.0000   1.0000   1.0000   1.0000   1.0000   1.0000   0.2217
    -0.0000  -0.0000  -0.0000  -0.0000  -0.0000  -0.0000  -0.0000  -0.0000
    -0.0000  -0.0000  -0.0000  -0.0000  -0.0000  -0.0000

          k = 0.0000 0.7500 0.0000 (  2217 PWs)   bands (ev):

     3.7354   4.9138   5.1948   5.7171   5.9099   5.9099   6.0660   6.7028
     6.7028   7.1750   7.4532   7.5744   7.8145   7.9485   7.9485   8.3354
    10.5896  11.1549  11.1549  13.2355  16.4667  21.8146  21.8146  24.0810
    24.2312  24.8161  25.1195  25.1196  25.6334  27.8673

     occupation numbers 
     1.0000   1.0000   1.0000   1.0000   1.0000   1.0000   1.0000   1.0000
     1.0000   1.0000   1.0000   1.0000   1.0000   1.0000   1.0000   0.3565
    -0.0000  -0.0000  -0.0000  -0.0000  -0.0000  -0.0000  -0.0000  -0.0000
    -0.0000  -0.0000  -0.0000  -0.0000  -0.0000  -0.0000

          k = 0.8750-0.1250 0.8750 (  2209 PWs)   bands (ev):

     4.2473   4.7976   5.1847   5.7704   5.8390   6.0195   6.2020   6.6336
     6.8230   7.1566   7.3569   7.5022   7.6107   8.1838   8.2308   8.4741
     9.4673  10.0239  10.9788  13.8808  16.8550  21.8357  22.0920  23.8361
    23.8623  25.1355  25.7349  26.0135  27.1155  27.5572

     occupation numbers 
     1.0000   1.0000   1.0000   1.0000   1.0000   1.0000   1.0000   1.0000
     1.0000   1.0000   1.0000   1.0000   1.0000   1.0066   1.0330  -0.0038
    -0.0000  -0.0000  -0.0000  -0.0000  -0.0000  -0.0000  -0.0000  -0.0000
    -0.0000  -0.0000  -0.0000  -0.0000  -0.0000  -0.0000

          k = 0.7500 0.0000 0.7500 (  2219 PWs)   bands (ev):

     4.6486   4.7173   5.2787   5.6115   5.7437   6.1785   6.3059   6.5112
     6.9629   7.0273   7.1476   7.3835   7.5967   8.2537   8.3268   8.3581
     9.0277   9.3262  11.6740  14.6098  18.2753  21.1600  21.5454  21.6918
    22.0213  25.4045  25.5696  26.9068  27.6692  28.8566

     occupation numbers 
     1.0000   1.0000   1.0000   1.0000   1.0000   1.0000   1.0000   1.0000
     1.0000   1.0000   1.0000   1.0000   1.0000   1.0279   0.4615   0.1266
    -0.0000  -0.0000  -0.0000  -0.0000  -0.0000  -0.0000  -0.0000  -0.0000
    -0.0000  -0.0000  -0.0000  -0.0000  -0.0000  -0.0000

          k = 0.0000-1.0000 0.0000 (  2200 PWs)   bands (ev):

     4.3240   4.6720   5.2083   5.8403   5.9609   5.9609   6.2041   6.6780
     6.6780   7.2313   7.4077   7.5050   7.7448   8.2829   8.2829   8.7531
     8.9776  10.4355  10.4355  13.1658  16.3770  23.4176  23.4176  24.2323
    24.6943  25.1516  25.1516  25.8227  27.1673  27.1676

     occupation numbers 
     1.0000   1.0000   1.0000   1.0000   1.0000   1.0000   1.0000   1.0000
     1.0000   1.0000   1.0000   1.0000   1.0000   0.9197   0.9197  -0.0000
    -0.0000  -0.0000  -0.0000  -0.0000  -0.0000  -0.0000  -0.0000  -0.0000
    -0.0000  -0.0000  -0.0000  -0.0000  -0.0000  -0.0000

          k =-0.2500 0.5000 0.0000 (  2202 PWs)   bands (ev):

     2.9359   5.2322   5.3845   5.5363   5.8113   5.8646   6.1079   6.5721
     6.6277   7.0705   7.1553   7.3999   7.7466   7.8022   8.0151   8.3126
    11.2114  11.8925  13.7905  15.5734  17.5635  17.9627  19.7913  20.6528
    21.5365  23.7521  24.5543  24.6970  26.1907  28.0425

     occupation numbers 
     1.0000   1.0000   1.0000   1.0000   1.0000   1.0000   1.0000   1.0000
     1.0000   1.0000   1.0000   1.0000   1.0000   1.0000   1.0000   0.6353
    -0.0000  -0.0000  -0.0000  -0.0000  -0.0000  -0.0000  -0.0000  -0.0000
    -0.0000  -0.0000  -0.0000  -0.0000  -0.0000  -0.0000

          k = 0.6250-0.3750 0.8750 (  2211 PWs)   bands (ev):

     3.7364   5.1564   5.3561   5.6906   5.8975   5.9354   6.2198   6.4764
     6.6619   6.8397   6.9640   7.2693   7.7089   7.8918   8.0634   8.3133
     9.5770  11.5084  12.8029  16.1869  17.2869  18.7525  20.1558  21.2394
    22.5067  23.4974  25.5071  26.1801  27.2738  28.2239

     occupation numbers 
     1.0000   1.0000   1.0000   1.0000   1.0000   1.0000   1.0000   1.0000
     1.0000   1.0000   1.0000   1.0000   1.0000   1.0000   1.0000   0.6277
    -0.0000  -0.0000  -0.0000  -0.0000  -0.0000  -0.0000  -0.0000  -0.0000
    -0.0000  -0.0000  -0.0000  -0.0000  -0.0000  -0.0000

          k = 0.5000-0.2500 0.7500 (  2216 PWs)   bands (ev):

     4.3064   4.9433   5.4165   5.6707   5.9013   5.9908   6.3900   6.4271
     6.6202   6.7523   6.9764   7.1264   7.6872   7.9611   8.1653   8.2806
     8.6999  11.6302  12.2837  16.3320  17.0453  20.0133  20.4410  21.1575
    21.6561  24.0076  25.0894  27.7830  27.9776  28.2882

     occupation numbers 
     1.0000   1.0000   1.0000   1.0000   1.0000   1.0000   1.0000   1.0000
     1.0000   1.0000   1.0000   1.0000   1.0000   1.0000   1.0024   0.9341
    -0.0000  -0.0000  -0.0000  -0.0000  -0.0000  -0.0000  -0.0000  -0.0000
    -0.0000  -0.0000  -0.0000  -0.0000  -0.0000  -0.0000

          k = 0.7500-0.2500 1.0000 (  2203 PWs)   bands (ev):

     3.9363   4.9925   5.1883   5.7053   5.8499   5.9962   6.1709   6.6329
     6.7684   7.0733   7.1789   7.4555   7.6320   7.9938   8.1161   8.3393
    10.1034  10.6035  11.2141  14.8992  17.2655  19.4829  22.0322  23.0084
    23.7711  24.0574  24.8489  26.2513  26.8851  27.9838

     occupation numbers 
     1.0000   1.0000   1.0000   1.0000   1.0000   1.0000   1.0000   1.0000
     1.0000   1.0000   1.0000   1.0000   1.0000   1.0000   1.0001   0.3105
    -0.0000  -0.0000  -0.0000  -0.0000  -0.0000  -0.0000  -0.0000  -0.0000
    -0.0000  -0.0000  -0.0000  -0.0000  -0.0000  -0.0000

          k = 0.6250-0.1250 0.8750 (  2218 PWs)   bands (ev):

     4.5262   4.8460   5.2397   5.5773   5.8752   6.1455   6.2942   6.5425
     6.7766   6.9977   7.0900   7.3972   7.5807   8.2160   8.3181   8.4587
     8.8547  10.1063  10.9393  15.8104  18.3944  18.8977  21.0151  22.4099
    23.8892  24.5592  25.2800  26.8465  27.5497  27.9487

     occupation numbers 
     1.0000   1.0000   1.0000   1.0000   1.0000   1.0000   1.0000   1.0000
     1.0000   1.0000   1.0000   1.0000   1.0000   1.0239   0.5685  -0.0084
    -0.0000  -0.0000  -0.0000  -0.0000  -0.0000  -0.0000  -0.0000  -0.0000
    -0.0000  -0.0000  -0.0000  -0.0000  -0.0000  -0.0000

          k = 0.5000 0.0000 0.7500 (  2215 PWs)   bands (ev):

     4.3709   4.9777   5.3001   5.5796   5.9183   6.1137   6.3285   6.4593
     6.6221   6.9475   7.0201   7.3342   7.6150   8.0143   8.2106   8.3592
     9.4727   9.8189  11.7069  16.4359  17.8766  19.2265  20.6094  22.0523
    22.4673  24.1533  25.0036  27.4725  27.6394  29.0607

     occupation numbers 
     1.0000   1.0000   1.0000   1.0000   1.0000   1.0000   1.0000   1.0000
     1.0000   1.0000   1.0000   1.0000   1.0000   1.0000   1.0202   0.1182
    -0.0000  -0.0000  -0.0000  -0.0000  -0.0000  -0.0000  -0.0000  -0.0000
    -0.0000  -0.0000  -0.0000  -0.0000  -0.0000  -0.0000

          k =-0.2500-1.0000 0.0000 (  2224 PWs)   bands (ev):

     4.4977   4.7546   5.2083   5.6785   5.8157   6.1221   6.2294   6.6204
     6.9556   7.1358   7.2353   7.4250   7.5449   8.2973   8.3575   8.8535
     8.9508   9.9709  10.0543  14.6964  17.1586  21.0019  21.7106  23.8463
    24.5657  24.9284  26.2131  26.4289  26.9824  27.1315

     occupation numbers 
     1.0000   1.0000   1.0000   1.0000   1.0000   1.0000   1.0000   1.0000
     1.0000   1.0000   1.0000   1.0000   1.0000   0.8023   0.1313  -0.0000
    -0.0000  -0.0000  -0.0000  -0.0000  -0.0000  -0.0000  -0.0000  -0.0000
    -0.0000  -0.0000  -0.0000  -0.0000  -0.0000  -0.0000

          k =-0.5000-1.0000 0.0000 (  2208 PWs)   bands (ev):

     4.6969   4.8783   5.2124   5.4255   6.0698   6.1511   6.2683   6.5686
     6.5828   7.0270   7.1658   7.4500   7.5455   8.3038   8.4233   8.9248
     9.1372   9.5094   9.7471  17.5985  17.6570  18.9090  19.2966  24.4667
    24.6793  24.9369  25.9321  26.0039  26.3269  27.3108

     occupation numbers 
     1.0000   1.0000   1.0000   1.0000   1.0000   1.0000   1.0000   1.0000
     1.0000   1.0000   1.0000   1.0000   1.0000   0.7358  -0.0292  -0.0000
    -0.0000  -0.0000  -0.0000  -0.0000  -0.0000  -0.0000  -0.0000  -0.0000
    -0.0000  -0.0000  -0.0000  -0.0000  -0.0000  -0.0000

     the Fermi energy is     8.3237 ev

!    total energy              =   -1145.98222205 Ry

     total all-electron energy =    -43178.941601 Ry
     estimated scf accuracy    <       0.00000009 Ry
     smearing contrib. (-TS)   =      -0.00049493 Ry
     internal energy E=F+TS    =   -1145.98172711 Ry

     The total energy is F=E-TS. E is the sum of the following terms:
     one-electron contribution =     -72.19177565 Ry
     hartree contribution      =      75.31643878 Ry
     xc contribution           =    -109.87516312 Ry
     ewald contribution        =    -179.67500598 Ry
     one-center paw contrib.   =    -859.55622115 Ry
      -> PAW hartree energy AE =     221.56695018 Ry
      -> PAW hartree energy PS =    -220.44676738 Ry
      -> PAW xc energy AE      =    -969.90025885 Ry
      -> PAW xc energy PS      =     109.22385490 Ry
      -> total E_H with PAW    =      76.43662158 Ry
      -> total E_XC with PAW   =    -970.55156707 Ry

     convergence has been achieved in  11 iterations

     Writing output data file ././CuPtNi.save/

     init_run     :      3.74s CPU      2.83s WALL (       1 calls)
     electrons    :     92.10s CPU     56.19s WALL (       1 calls)

     Called by init_run:
     wfcinit      :      2.47s CPU      1.58s WALL (       1 calls)
     wfcinit:atom :      0.05s CPU      0.02s WALL (      29 calls)
     wfcinit:wfcr :      2.29s CPU      1.50s WALL (      29 calls)
     potinit      :      0.38s CPU      0.39s WALL (       1 calls)
     hinit0       :      0.73s CPU      0.70s WALL (       1 calls)

     Called by electrons:
     c_bands      :     68.29s CPU     39.81s WALL (      11 calls)
     sum_band     :     17.94s CPU     10.79s WALL (      11 calls)
     v_of_rho     :      0.57s CPU      0.37s WALL (      12 calls)
     v_h          :      0.04s CPU      0.02s WALL (      12 calls)
     v_xc         :      0.53s CPU      0.34s WALL (      12 calls)
     newd         :      1.36s CPU      1.21s WALL (      12 calls)
     PAW_pot      :      4.27s CPU      4.10s WALL (      12 calls)
     mix_rho      :      0.08s CPU      0.05s WALL (      11 calls)

     Called by c_bands:
     init_us_2    :      1.40s CPU      0.72s WALL (     667 calls)
     cegterg      :     63.24s CPU     36.92s WALL (     319 calls)

     Called by sum_band:
     sum_band:wei :      0.02s CPU      0.01s WALL (      11 calls)
     sum_band:loo :     15.38s CPU      9.41s WALL (      11 calls)
     sum_band:buf :      0.07s CPU      0.04s WALL (     319 calls)
     sum_band:ini :      0.60s CPU      0.34s WALL (     319 calls)
     sum_band:cal :      0.29s CPU      0.18s WALL (     319 calls)
     sum_band:bec :      0.01s CPU      0.01s WALL (     319 calls)
     addusdens    :      2.45s CPU      1.31s WALL (      11 calls)
     addusd:skk   :      0.00s CPU      0.00s WALL (      33 calls)
     addusd:dgemm :      1.38s CPU      0.53s WALL (      33 calls)
     addusd:qvan2 :      0.94s CPU      0.61s WALL (      33 calls)

     Called by *egterg:
     cdiaghg      :      2.58s CPU      1.09s WALL (    1158 calls)
     cegterg:over :      1.34s CPU      0.55s WALL (     839 calls)
     cegterg:upda :      1.04s CPU      0.39s WALL (     839 calls)
     cegterg:last :      1.43s CPU      0.56s WALL (     540 calls)
     h_psi        :     56.72s CPU     34.85s WALL (    1187 calls)
     s_psi        :      0.89s CPU      0.39s WALL (    1187 calls)
     g_psi        :      0.51s CPU      0.18s WALL (     839 calls)

     Called by h_psi:
     h_psi:calbec :      0.89s CPU      0.67s WALL (    1187 calls)
     vloc_psi     :     54.59s CPU     33.59s WALL (    1187 calls)
     add_vuspsi   :      0.90s CPU      0.43s WALL (    1187 calls)

     General routines
     calbec       :      1.17s CPU      0.85s WALL (    1506 calls)
     fft          :      0.28s CPU      0.19s WALL (     132 calls)
     ffts         :      0.02s CPU      0.01s WALL (      11 calls)
     fftw         :     60.22s CPU     37.07s WALL (   55964 calls)

     Parallel routines

     PAW routines
     PAW_pot      :      4.27s CPU      4.10s WALL (      12 calls)
     PAW_symme    :      0.01s CPU      0.01s WALL (      23 calls)

     PWSCF        :   1m36.12s CPU     59.31s WALL


   This run was terminated on:  13: 5:11  22May2024            

=------------------------------------------------------------------------------=
   JOB DONE.
=------------------------------------------------------------------------------=
