
     Program PWSCF v.6.7MaX starts on 22May2024 at 13: 5:12 

     This program is part of the open-source Quantum ESPRESSO suite
     for quantum simulation of materials; please cite
         "P. Giannozzi et al., J. Phys.:Condens. Matter 21 395502 (2009);
         "P. Giannozzi et al., J. Phys.:Condens. Matter 29 465901 (2017);
          URL http://www.quantum-espresso.org", 
     in publications or presentations arising from this work. More details at
     http://www.quantum-espresso.org/quote

     Parallel version (MPI), running on     1 processors

     MPI processes distributed on     1 nodes
     Waiting for input...
     Reading input from standard input

     Current dimensions of program PWSCF are:
     Max number of different atomic species (ntypx) = 10
     Max number of k-points (npk) =  40000
     Max angular momentum in pseudopotentials (lmaxx) =  3
     file Cu.UPF: wavefunction(s)  4S 3D renormalized
     file Pt.UPF: wavefunction(s)  6S 5D renormalized
     file Ni.UPF: wavefunction(s)  4S 3D renormalized

     Subspace diagonalization in iterative solution of the eigenvalue problem:
     a serial algorithm will be used


     G-vector sticks info
     --------------------
     sticks:   dense  smooth     PW     G-vecs:    dense   smooth      PW
     Sum         913     913    271                18149    18149    2975



     bravais-lattice index     =            2
     lattice parameter (alat)  =      11.5000  a.u.
     unit-cell volume          =     380.2188 (a.u.)^3
     number of atoms/cell      =            3
     number of atomic types    =            3
     number of electrons       =        31.00
     number of Kohn-Sham states=           30
     kinetic-energy cutoff     =      50.0000  Ry
     charge density cutoff     =     200.0000  Ry
     scf convergence threshold =      1.0E-07
     mixing beta               =       0.7000
     number of iterations used =            8  plain     mixing
     Exchange-correlation= SLA  PW   PBX  PBC
                           (   1   4   3   4   0   0   0)

     celldm(1)=  11.500000  celldm(2)=   0.000000  celldm(3)=   0.000000
     celldm(4)=   0.000000  celldm(5)=   0.000000  celldm(6)=   0.000000

     crystal axes: (cart. coord. in units of alat)
               a(1) = (  -0.500000   0.000000   0.500000 )  
               a(2) = (   0.000000   0.500000   0.500000 )  
               a(3) = (  -0.500000   0.500000   0.000000 )  

     reciprocal axes: (cart. coord. in units 2 pi/alat)
               b(1) = ( -1.000000 -1.000000  1.000000 )  
               b(2) = (  1.000000  1.000000  1.000000 )  
               b(3) = ( -1.000000  1.000000 -1.000000 )  


     PseudoPot. # 1 for Cu read from file:
     ././Cu.UPF
     MD5 check sum: cfffd1f38ee05704b3e17f46f1730a6f
     Pseudo is Projector augmented-wave + core cor, Zval = 11.0
     Generated using &quot;atomic&quot; code by A. Dal Corso  v.6.3
     Shape of augmentation charge: PSQ
     Using radial grid of 1199 points,  6 beta functions with: 
                l(1) =   0
                l(2) =   0
                l(3) =   1
                l(4) =   1
                l(5) =   2
                l(6) =   2
     Q(r) pseudized with 0 coefficients 


     PseudoPot. # 2 for Pt read from file:
     ././Pt.UPF
     MD5 check sum: c5224e9cd7a5e36e81f2def9f50bb494
     Pseudo is Projector augmented-wave + core cor, Zval = 10.0
     Generated using &quot;atomic&quot; code by A. Dal Corso  v.6.3
     Shape of augmentation charge: PSQ
     Using radial grid of 1277 points,  6 beta functions with: 
                l(1) =   0
                l(2) =   0
                l(3) =   1
                l(4) =   1
                l(5) =   2
                l(6) =   2
     Q(r) pseudized with 0 coefficients 


     PseudoPot. # 3 for Ni read from file:
     ././Ni.UPF
     MD5 check sum: 5bc40517020091042a126ac2b4ecef1e
     Pseudo is Projector augmented-wave + core cor, Zval = 10.0
     Generated using "atomic" code by A. Dal Corso  v.5.0.2 svn rev. 9415
     Shape of augmentation charge: PSQ
     Using radial grid of 1195 points,  6 beta functions with: 
                l(1) =   0
                l(2) =   0
                l(3) =   1
                l(4) =   1
                l(5) =   2
                l(6) =   2
     Q(r) pseudized with 0 coefficients 


     atomic species   valence    mass     pseudopotential
        Cu            11.00    63.54600     Cu( 1.00)
        Pt            10.00   195.08000     Pt( 1.00)
        Ni            10.00    58.69000     Ni( 1.00)

     24 Sym. Ops. (no inversion) found


                                    s                        frac. trans.

      isym =  1     identity                                     

 cryst.   s( 1) = (     1          0          0      )
                  (     0          1          0      )
                  (     0          0          1      )

 cart.    s( 1) = (  1.0000000  0.0000000  0.0000000 )
                  (  0.0000000  1.0000000  0.0000000 )
                  (  0.0000000  0.0000000  1.0000000 )


      isym =  2     180 deg rotation - cart. axis [0,0,1]        

 cryst.   s( 2) = (     0          1         -1      )
                  (     1          0         -1      )
                  (     0          0         -1      )

 cart.    s( 2) = ( -1.0000000  0.0000000  0.0000000 )
                  (  0.0000000 -1.0000000  0.0000000 )
                  (  0.0000000  0.0000000  1.0000000 )


      isym =  3     180 deg rotation - cart. axis [0,1,0]        

 cryst.   s( 3) = (    -1          0          0      )
                  (    -1          0          1      )
                  (    -1          1          0      )

 cart.    s( 3) = ( -1.0000000  0.0000000  0.0000000 )
                  (  0.0000000  1.0000000  0.0000000 )
                  (  0.0000000  0.0000000 -1.0000000 )


      isym =  4     180 deg rotation - cart. axis [1,0,0]        

 cryst.   s( 4) = (     0         -1          1      )
                  (     0         -1          0      )
                  (     1         -1          0      )

 cart.    s( 4) = (  1.0000000  0.0000000  0.0000000 )
                  (  0.0000000 -1.0000000  0.0000000 )
                  (  0.0000000  0.0000000 -1.0000000 )


      isym =  5     120 deg rotation - cart. axis [-1,-1,-1]     

 cryst.   s( 5) = (    -1          0          1      )
                  (    -1          1          0      )
                  (    -1          0          0      )

 cart.    s( 5) = (  0.0000000  1.0000000  0.0000000 )
                  (  0.0000000  0.0000000  1.0000000 )
                  (  1.0000000  0.0000000  0.0000000 )


      isym =  6     120 deg rotation - cart. axis [-1,1,1]       

 cryst.   s( 6) = (     0          1          0      )
                  (     0          0          1      )
                  (     1          0          0      )

 cart.    s( 6) = (  0.0000000 -1.0000000  0.0000000 )
                  (  0.0000000  0.0000000  1.0000000 )
                  ( -1.0000000  0.0000000  0.0000000 )


      isym =  7     120 deg rotation - cart. axis [1,1,-1]       

 cryst.   s( 7) = (     1          0         -1      )
                  (     0          0         -1      )
                  (     0          1         -1      )

 cart.    s( 7) = (  0.0000000  1.0000000  0.0000000 )
                  (  0.0000000  0.0000000 -1.0000000 )
                  ( -1.0000000  0.0000000  0.0000000 )


      isym =  8     120 deg rotation - cart. axis [1,-1,1]       

 cryst.   s( 8) = (     0         -1          0      )
                  (     1         -1          0      )
                  (     0         -1          1      )

 cart.    s( 8) = (  0.0000000 -1.0000000  0.0000000 )
                  (  0.0000000  0.0000000 -1.0000000 )
                  (  1.0000000  0.0000000  0.0000000 )


      isym =  9     120 deg rotation - cart. axis [1,1,1]        

 cryst.   s( 9) = (     0          0         -1      )
                  (     0          1         -1      )
                  (     1          0         -1      )

 cart.    s( 9) = (  0.0000000  0.0000000  1.0000000 )
                  (  1.0000000  0.0000000  0.0000000 )
                  (  0.0000000  1.0000000  0.0000000 )


      isym = 10     120 deg rotation - cart. axis [-1,1,-1]      

 cryst.   s(10) = (    -1          1          0      )
                  (    -1          0          0      )
                  (    -1          0          1      )

 cart.    s(10) = (  0.0000000  0.0000000  1.0000000 )
                  ( -1.0000000  0.0000000  0.0000000 )
                  (  0.0000000 -1.0000000  0.0000000 )


      isym = 11     120 deg rotation - cart. axis [1,-1,-1]      

 cryst.   s(11) = (     0          0          1      )
                  (     1          0          0      )
                  (     0          1          0      )

 cart.    s(11) = (  0.0000000  0.0000000 -1.0000000 )
                  ( -1.0000000  0.0000000  0.0000000 )
                  (  0.0000000  1.0000000  0.0000000 )


      isym = 12     120 deg rotation - cart. axis [-1,-1,1]      

 cryst.   s(12) = (     1         -1          0      )
                  (     0         -1          1      )
                  (     0         -1          0      )

 cart.    s(12) = (  0.0000000  0.0000000 -1.0000000 )
                  (  1.0000000  0.0000000  0.0000000 )
                  (  0.0000000 -1.0000000  0.0000000 )


      isym = 13     inv. 180 deg rotation - cart. axis [1,1,0]   

 cryst.   s(13) = (     0          1          0      )
                  (     1          0          0      )
                  (     0          0          1      )

 cart.    s(13) = (  0.0000000 -1.0000000  0.0000000 )
                  ( -1.0000000  0.0000000  0.0000000 )
                  (  0.0000000  0.0000000  1.0000000 )


      isym = 14     inv. 180 deg rotation - cart. axis [1,-1,0]  

 cryst.   s(14) = (     1          0         -1      )
                  (     0          1         -1      )
                  (     0          0         -1      )

 cart.    s(14) = (  0.0000000  1.0000000  0.0000000 )
                  (  1.0000000  0.0000000  0.0000000 )
                  (  0.0000000  0.0000000  1.0000000 )


      isym = 15     inv.  90 deg rotation - cart. axis [0,0,-1]  

 cryst.   s(15) = (     0         -1          0      )
                  (     0         -1          1      )
                  (     1         -1          0      )

 cart.    s(15) = (  0.0000000 -1.0000000  0.0000000 )
                  (  1.0000000  0.0000000  0.0000000 )
                  (  0.0000000  0.0000000 -1.0000000 )


      isym = 16     inv.  90 deg rotation - cart. axis [0,0,1]   

 cryst.   s(16) = (    -1          0          1      )
                  (    -1          0          0      )
                  (    -1          1          0      )

 cart.    s(16) = (  0.0000000  1.0000000  0.0000000 )
                  ( -1.0000000  0.0000000  0.0000000 )
                  (  0.0000000  0.0000000 -1.0000000 )


      isym = 17     inv. 180 deg rotation - cart. axis [1,0,1]   

 cryst.   s(17) = (     1          0          0      )
                  (     0          0          1      )
                  (     0          1          0      )

 cart.    s(17) = (  0.0000000  0.0000000 -1.0000000 )
                  (  0.0000000  1.0000000  0.0000000 )
                  ( -1.0000000  0.0000000  0.0000000 )


      isym = 18     inv. 180 deg rotation - cart. axis [-1,0,1]  

 cryst.   s(18) = (    -1          0          0      )
                  (    -1          1          0      )
                  (    -1          0          1      )

 cart.    s(18) = (  0.0000000  0.0000000  1.0000000 )
                  (  0.0000000  1.0000000  0.0000000 )
                  (  1.0000000  0.0000000  0.0000000 )


      isym = 19     inv.  90 deg rotation - cart. axis [0,1,0]   

 cryst.   s(19) = (     0         -1          1      )
                  (     1         -1          0      )
                  (     0         -1          0      )

 cart.    s(19) = (  0.0000000  0.0000000 -1.0000000 )
                  (  0.0000000 -1.0000000  0.0000000 )
                  (  1.0000000  0.0000000  0.0000000 )


      isym = 20     inv.  90 deg rotation - cart. axis [0,-1,0]  

 cryst.   s(20) = (     0          1         -1      )
                  (     0          0         -1      )
                  (     1          0         -1      )

 cart.    s(20) = (  0.0000000  0.0000000  1.0000000 )
                  (  0.0000000 -1.0000000  0.0000000 )
                  ( -1.0000000  0.0000000  0.0000000 )


      isym = 21     inv. 180 deg rotation - cart. axis [0,1,1]   

 cryst.   s(21) = (     1         -1          0      )
                  (     0         -1          0      )
                  (     0         -1          1      )

 cart.    s(21) = (  1.0000000  0.0000000  0.0000000 )
                  (  0.0000000  0.0000000 -1.0000000 )
                  (  0.0000000 -1.0000000  0.0000000 )


      isym = 22     inv. 180 deg rotation - cart. axis [0,1,-1]  

 cryst.   s(22) = (     0          0          1      )
                  (     0          1          0      )
                  (     1          0          0      )

 cart.    s(22) = (  1.0000000  0.0000000  0.0000000 )
                  (  0.0000000  0.0000000  1.0000000 )
                  (  0.0000000  1.0000000  0.0000000 )


      isym = 23     inv.  90 deg rotation - cart. axis [-1,0,0]  

 cryst.   s(23) = (     0          0         -1      )
                  (     1          0         -1      )
                  (     0          1         -1      )

 cart.    s(23) = ( -1.0000000  0.0000000  0.0000000 )
                  (  0.0000000  0.0000000 -1.0000000 )
                  (  0.0000000  1.0000000  0.0000000 )


      isym = 24     inv.  90 deg rotation - cart. axis [1,0,0]   

 cryst.   s(24) = (    -1          1          0      )
                  (    -1          0          1      )
                  (    -1          0          0      )

 cart.    s(24) = ( -1.0000000  0.0000000  0.0000000 )
                  (  0.0000000  0.0000000  1.0000000 )
                  (  0.0000000 -1.0000000  0.0000000 )


     point group T_d (-43m) 
     there are  5 classes
     the character table:

       E     8C3   3C2   6S4   6s_d 
A_1    1.00  1.00  1.00  1.00  1.00
A_2    1.00  1.00  1.00 -1.00 -1.00
E      2.00 -1.00  2.00  0.00  0.00
T_1    3.00  0.00 -1.00  1.00 -1.00
T_2    3.00  0.00 -1.00 -1.00  1.00

     the symmetry operations in each class and the name of the first element:

     E        1
          identity                                               
     8C3      5    7    8    6   12    9   10   11
          120 deg rotation - cart. axis [-1,-1,-1]               
     3C2      2    3    4
          180 deg rotation - cart. axis [0,0,1]                  
     6S4     15   16   20   19   23   24
          inv.  90 deg rotation - cart. axis [0,0,-1]            
     6s_d    13   14   17   18   21   22
          inv. 180 deg rotation - cart. axis [1,1,0]             

   Cartesian axes

     site n.     atom                  positions (alat units)
         1           Cu  tau(   1) = (   0.0000000   0.0000000   0.0000000  )
         2           Pt  tau(   2) = (   0.5000000   0.5000000   0.5000000  )
         3           Ni  tau(   3) = (   0.2500000   0.2500000   0.2500000  )

   Crystallographic axes

     site n.     atom                  positions (cryst. coord.)
         1           Cu  tau(   1) = (  0.0000000  0.0000000  0.0000000  )
         2           Pt  tau(   2) = ( -0.5000000  1.5000000 -0.5000000  )
         3           Ni  tau(   3) = ( -0.2500000  0.7500000 -0.2500000  )

     number of k points=    29  Methfessel-Paxton smearing, width (Ry)=  0.0050
                       cart. coord. in units 2pi/alat
        k(    1) = (   0.0000000   0.0000000   0.0000000), wk =   0.0039062
        k(    2) = (  -0.1250000   0.1250000  -0.1250000), wk =   0.0312500
        k(    3) = (  -0.2500000   0.2500000  -0.2500000), wk =   0.0312500
        k(    4) = (  -0.3750000   0.3750000  -0.3750000), wk =   0.0312500
        k(    5) = (   0.5000000  -0.5000000   0.5000000), wk =   0.0156250
        k(    6) = (   0.0000000   0.2500000   0.0000000), wk =   0.0234375
        k(    7) = (  -0.1250000   0.3750000  -0.1250000), wk =   0.0937500
        k(    8) = (  -0.2500000   0.5000000  -0.2500000), wk =   0.0937500
        k(    9) = (   0.6250000  -0.3750000   0.6250000), wk =   0.0937500
        k(   10) = (   0.5000000  -0.2500000   0.5000000), wk =   0.0937500
        k(   11) = (   0.3750000  -0.1250000   0.3750000), wk =   0.0937500
        k(   12) = (   0.2500000   0.0000000   0.2500000), wk =   0.0468750
        k(   13) = (   0.0000000   0.5000000   0.0000000), wk =   0.0234375
        k(   14) = (  -0.1250000   0.6250000  -0.1250000), wk =   0.0937500
        k(   15) = (   0.7500000  -0.2500000   0.7500000), wk =   0.0937500
        k(   16) = (   0.6250000  -0.1250000   0.6250000), wk =   0.0937500
        k(   17) = (   0.5000000   0.0000000   0.5000000), wk =   0.0468750
        k(   18) = (   0.0000000   0.7500000   0.0000000), wk =   0.0234375
        k(   19) = (   0.8750000  -0.1250000   0.8750000), wk =   0.0937500
        k(   20) = (   0.7500000   0.0000000   0.7500000), wk =   0.0468750
        k(   21) = (   0.0000000  -1.0000000   0.0000000), wk =   0.0117188
        k(   22) = (  -0.2500000   0.5000000   0.0000000), wk =   0.0937500
        k(   23) = (   0.6250000  -0.3750000   0.8750000), wk =   0.1875000
        k(   24) = (   0.5000000  -0.2500000   0.7500000), wk =   0.0937500
        k(   25) = (   0.7500000  -0.2500000   1.0000000), wk =   0.0937500
        k(   26) = (   0.6250000  -0.1250000   0.8750000), wk =   0.1875000
        k(   27) = (   0.5000000   0.0000000   0.7500000), wk =   0.0937500
        k(   28) = (  -0.2500000  -1.0000000   0.0000000), wk =   0.0468750
        k(   29) = (  -0.5000000  -1.0000000   0.0000000), wk =   0.0234375

                       cryst. coord.
        k(    1) = (   0.0000000   0.0000000   0.0000000), wk =   0.0039062
        k(    2) = (   0.0000000   0.0000000   0.1250000), wk =   0.0312500
        k(    3) = (   0.0000000   0.0000000   0.2500000), wk =   0.0312500
        k(    4) = (   0.0000000   0.0000000   0.3750000), wk =   0.0312500
        k(    5) = (   0.0000000   0.0000000  -0.5000000), wk =   0.0156250
        k(    6) = (   0.0000000   0.1250000   0.1250000), wk =   0.0234375
        k(    7) = (   0.0000000   0.1250000   0.2500000), wk =   0.0937500
        k(    8) = (   0.0000000   0.1250000   0.3750000), wk =   0.0937500
        k(    9) = (   0.0000000   0.1250000  -0.5000000), wk =   0.0937500
        k(   10) = (   0.0000000   0.1250000  -0.3750000), wk =   0.0937500
        k(   11) = (   0.0000000   0.1250000  -0.2500000), wk =   0.0937500
        k(   12) = (   0.0000000   0.1250000  -0.1250000), wk =   0.0468750
        k(   13) = (   0.0000000   0.2500000   0.2500000), wk =   0.0234375
        k(   14) = (   0.0000000   0.2500000   0.3750000), wk =   0.0937500
        k(   15) = (   0.0000000   0.2500000  -0.5000000), wk =   0.0937500
        k(   16) = (   0.0000000   0.2500000  -0.3750000), wk =   0.0937500
        k(   17) = (   0.0000000   0.2500000  -0.2500000), wk =   0.0468750
        k(   18) = (   0.0000000   0.3750000   0.3750000), wk =   0.0234375
        k(   19) = (   0.0000000   0.3750000  -0.5000000), wk =   0.0937500
        k(   20) = (   0.0000000   0.3750000  -0.3750000), wk =   0.0468750
        k(   21) = (   0.0000000  -0.5000000  -0.5000000), wk =   0.0117188
        k(   22) = (   0.1250000   0.2500000   0.3750000), wk =   0.0937500
        k(   23) = (   0.1250000   0.2500000  -0.5000000), wk =   0.1875000
        k(   24) = (   0.1250000   0.2500000  -0.3750000), wk =   0.0937500
        k(   25) = (   0.1250000   0.3750000  -0.5000000), wk =   0.0937500
        k(   26) = (   0.1250000   0.3750000  -0.3750000), wk =   0.1875000
        k(   27) = (   0.1250000   0.3750000  -0.2500000), wk =   0.0937500
        k(   28) = (   0.1250000  -0.5000000  -0.3750000), wk =   0.0468750
        k(   29) = (   0.2500000  -0.5000000  -0.2500000), wk =   0.0234375

     Dense  grid:    18149 G-vectors     FFT dimensions: (  40,  40,  40)

     Dynamical RAM for                 wfc:       1.04 MB

     Dynamical RAM for     wfc (w. buffer):      31.17 MB

     Dynamical RAM for           str. fact:       0.83 MB

     Dynamical RAM for           local pot:       0.00 MB

     Dynamical RAM for          nlocal pot:       1.87 MB

     Dynamical RAM for                qrad:       3.41 MB

     Dynamical RAM for          rho,v,vnew:       2.30 MB

     Dynamical RAM for               rhoin:       0.77 MB

     Dynamical RAM for            rho*nmix:       4.43 MB

     Dynamical RAM for           G-vectors:       1.18 MB

     Dynamical RAM for          h,s,v(r/c):       0.16 MB

     Dynamical RAM for          <psi|beta>:       0.02 MB

     Dynamical RAM for                 psi:       2.08 MB

     Dynamical RAM for                hpsi:       2.08 MB

     Dynamical RAM for                spsi:       2.08 MB

     Dynamical RAM for      wfcinit/wfcrot:       2.10 MB

     Dynamical RAM for           addusdens:      51.79 MB

     Estimated static dynamical RAM per process >      49.50 MB

     Estimated max dynamical RAM per process >     101.29 MB

     Check: negative core charge=   -0.000004

     Initial potential from superposition of free atoms

     starting charge   30.99935, renormalised to   31.00000
     Starting wfcs are   27 randomized atomic wfcs +    3 random wfcs
     Checking if some PAW data can be deallocated... 

     total cpu time spent up to now is        2.9 secs

     Self-consistent Calculation

     iteration #  1     ecut=    50.00 Ry     beta= 0.70
     Davidson diagonalization with overlap
     ethr =  1.00E-02,  avg # of iterations =  5.4

     total cpu time spent up to now is        9.5 secs

     total energy              =   -1144.40420092 Ry
     estimated scf accuracy    <       2.02110694 Ry

     iteration #  2     ecut=    50.00 Ry     beta= 0.70
     Davidson diagonalization with overlap
     ethr =  6.52E-03,  avg # of iterations =  2.1

     total cpu time spent up to now is       15.3 secs

     total energy              =   -1142.79727299 Ry
     estimated scf accuracy    <      53.59332694 Ry

     iteration #  3     ecut=    50.00 Ry     beta= 0.70
     Davidson diagonalization with overlap
     ethr =  6.52E-03,  avg # of iterations =  2.0

     total cpu time spent up to now is       20.7 secs

     total energy              =   -1145.87330500 Ry
     estimated scf accuracy    <       0.79284998 Ry

     iteration #  4     ecut=    50.00 Ry     beta= 0.70
     Davidson diagonalization with overlap
     ethr =  2.56E-03,  avg # of iterations =  1.0

     total cpu time spent up to now is       25.4 secs

     total energy              =   -1145.95922537 Ry
     estimated scf accuracy    <       0.26106829 Ry

     iteration #  5     ecut=    50.00 Ry     beta= 0.70
     Davidson diagonalization with overlap
     ethr =  8.42E-04,  avg # of iterations =  1.2

     total cpu time spent up to now is       30.2 secs

     total energy              =   -1145.96400949 Ry
     estimated scf accuracy    <       0.07536917 Ry

     iteration #  6     ecut=    50.00 Ry     beta= 0.70
     Davidson diagonalization with overlap
     ethr =  2.43E-04,  avg # of iterations =  1.6

     total cpu time spent up to now is       35.0 secs

     total energy              =   -1145.96858047 Ry
     estimated scf accuracy    <       0.00362866 Ry

     iteration #  7     ecut=    50.00 Ry     beta= 0.70
     Davidson diagonalization with overlap
     ethr =  1.17E-05,  avg # of iterations =  7.3

     total cpu time spent up to now is       41.5 secs

     total energy              =   -1145.96950358 Ry
     estimated scf accuracy    <       0.00451099 Ry

     iteration #  8     ecut=    50.00 Ry     beta= 0.70
     Davidson diagonalization with overlap
     ethr =  1.17E-05,  avg # of iterations =  1.0

     total cpu time spent up to now is       46.2 secs

     total energy              =   -1145.96984630 Ry
     estimated scf accuracy    <       0.00006253 Ry

     iteration #  9     ecut=    50.00 Ry     beta= 0.70
     Davidson diagonalization with overlap
     ethr =  2.02E-07,  avg # of iterations =  4.2

     total cpu time spent up to now is       52.4 secs

     total energy              =   -1145.96988106 Ry
     estimated scf accuracy    <       0.00002704 Ry

     iteration # 10     ecut=    50.00 Ry     beta= 0.70
     Davidson diagonalization with overlap
     ethr =  8.72E-08,  avg # of iterations =  1.2

     total cpu time spent up to now is       57.1 secs

     total energy              =   -1145.96987776 Ry
     estimated scf accuracy    <       0.00003054 Ry

     iteration # 11     ecut=    50.00 Ry     beta= 0.70
     Davidson diagonalization with overlap
     ethr =  8.72E-08,  avg # of iterations =  1.0

     total cpu time spent up to now is       61.9 secs

     total energy              =   -1145.96987963 Ry
     estimated scf accuracy    <       0.00000051 Ry

     iteration # 12     ecut=    50.00 Ry     beta= 0.70
     Davidson diagonalization with overlap
     ethr =  1.65E-09,  avg # of iterations =  3.0

     total cpu time spent up to now is       67.3 secs

     End of self-consistent calculation

          k = 0.0000 0.0000 0.0000 (  2229 PWs)   bands (ev):

     1.4255   4.9397   4.9397   5.2620   5.2620   5.2620   6.1961   6.1961
     6.1961   7.1982   7.1982   7.4485   7.4485   7.4485   7.8574   7.8574
    14.9331  14.9331  14.9331  15.5623  17.0206  17.1197  17.1197  17.1197
    19.6562  19.6562  19.6562  23.2180  23.6540  23.6540

     occupation numbers 
     1.0000   1.0000   1.0000   1.0000   1.0000   1.0000   1.0000   1.0000
     1.0000   1.0000   1.0000   1.0000   1.0000   1.0000   1.0257   1.0257
    -0.0000  -0.0000  -0.0000  -0.0000  -0.0000  -0.0000  -0.0000  -0.0000
    -0.0000  -0.0000  -0.0000  -0.0000  -0.0000  -0.0000

          k =-0.1250 0.1250-0.1250 (  2250 PWs)   bands (ev):

     1.6312   4.9922   4.9922   5.2271   5.3103   5.3103   6.1755   6.1755
     6.2487   7.1122   7.1122   7.2788   7.4345   7.4345   7.8686   7.8686
    12.9713  14.7968  14.7968  15.9182  17.1203  17.1203  17.1713  17.9273
    19.6688  19.6688  20.4473  24.3373  24.3373  24.3886

     occupation numbers 
     1.0000   1.0000   1.0000   1.0000   1.0000   1.0000   1.0000   1.0000
     1.0000   1.0000   1.0000   1.0000   1.0000   1.0000   1.0326   1.0326
    -0.0000  -0.0000  -0.0000  -0.0000  -0.0000  -0.0000  -0.0000  -0.0000
    -0.0000  -0.0000  -0.0000  -0.0000  -0.0000  -0.0000

          k =-0.2500 0.2500-0.2500 (  2256 PWs)   bands (ev):

     2.2243   5.1395   5.1395   5.1813   5.4312   5.4312   6.1267   6.1267
     6.3234   6.8478   6.8727   6.8727   7.4378   7.4378   7.8691   7.8691
    10.7165  14.5238  14.5238  15.5049  16.8562  16.8562  17.3807  18.8932
    20.2822  20.2822  23.1974  25.8771  25.8772  26.9106

     occupation numbers 
     1.0000   1.0000   1.0000   1.0000   1.0000   1.0000   1.0000   1.0000
     1.0000   1.0000   1.0000   1.0000   1.0000   1.0000   1.0328   1.0328
    -0.0000  -0.0000  -0.0000  -0.0000  -0.0000  -0.0000  -0.0000  -0.0000
    -0.0000  -0.0000  -0.0000  -0.0000  -0.0000  -0.0000

          k =-0.3750 0.3750-0.3750 (  2265 PWs)   bands (ev):

     3.0932   5.1695   5.3340   5.3340   5.5614   5.5614   6.0317   6.0849
     6.0849   6.5762   6.5762   6.5783   7.4695   7.4695   7.8401   7.8401
     9.0144  14.2853  14.2853  15.2409  16.4922  16.4922  17.0158  20.9453
    21.5762  21.5762  25.9522  26.1351  26.1351  27.4357

     occupation numbers 
     1.0000   1.0000   1.0000   1.0000   1.0000   1.0000   1.0000   1.0000
     1.0000   1.0000   1.0000   1.0000   1.0000   1.0000   1.0146   1.0146
    -0.0000  -0.0000  -0.0000  -0.0000  -0.0000  -0.0000  -0.0000  -0.0000
    -0.0000  -0.0000  -0.0000  -0.0000  -0.0000  -0.0000

          k = 0.5000-0.5000 0.5000 (  2276 PWs)   bands (ev):

     3.7050   5.0920   5.4403   5.4403   5.6206   5.6206   5.6578   6.0821
     6.0821   6.4106   6.4106   6.5698   7.4918   7.4918   7.8178   7.8178
     8.3668  14.1896  14.1896  15.1504  16.3459  16.3459  16.8892  22.6612
    22.6612  22.8920  24.3354  24.8269  24.8269  29.3012

     occupation numbers 
     1.0000   1.0000   1.0000   1.0000   1.0000   1.0000   1.0000   1.0000
     1.0000   1.0000   1.0000   1.0000   1.0000   1.0000   1.0053   1.0053
    -0.0000  -0.0000  -0.0000  -0.0000  -0.0000  -0.0000  -0.0000  -0.0000
    -0.0000  -0.0000  -0.0000  -0.0000  -0.0000  -0.0000

          k = 0.0000 0.2500 0.0000 (  2249 PWs)   bands (ev):

     1.6985   4.9904   5.0146   5.1899   5.3377   5.3377   6.1080   6.2422
     6.2422   6.9992   7.1916   7.3816   7.3871   7.3871   7.7974   7.9090
    13.6960  13.8739  13.8739  15.3907  17.0720  17.8421  17.9256  17.9256
    19.6412  20.5353  20.5353  23.4700  23.6564  26.0082

     occupation numbers 
     1.0000   1.0000   1.0000   1.0000   1.0000   1.0000   1.0000   1.0000
     1.0000   1.0000   1.0000   1.0000   1.0000   1.0000   1.0016   0.9857
    -0.0000  -0.0000  -0.0000  -0.0000  -0.0000  -0.0000  -0.0000  -0.0000
    -0.0000  -0.0000  -0.0000  -0.0000  -0.0000  -0.0000

          k =-0.1250 0.3750-0.1250 (  2258 PWs)   bands (ev):

     2.1592   5.0360   5.1312   5.1569   5.4350   5.4537   5.9742   6.2635
     6.3041   6.8284   7.0462   7.1196   7.3954   7.4271   7.7555   7.9264
    11.5287  13.2385  14.0333  14.8427  16.9558  17.7882  18.2330  19.0337
    20.3845  21.2745  22.3525  24.3868  24.6747  28.0796

     occupation numbers 
     1.0000   1.0000   1.0000   1.0000   1.0000   1.0000   1.0000   1.0000
     1.0000   1.0000   1.0000   1.0000   1.0000   1.0000   1.0001   0.8850
    -0.0000  -0.0000  -0.0000  -0.0000  -0.0000  -0.0000  -0.0000  -0.0000
    -0.0000  -0.0000  -0.0000  -0.0000  -0.0000  -0.0000

          k =-0.2500 0.5000-0.2500 (  2275 PWs)   bands (ev):

     2.9394   5.0370   5.2159   5.3026   5.5560   5.6296   5.8673   6.2367
     6.2625   6.6333   6.7335   6.8000   7.4472   7.4522   7.7536   7.9112
     9.5434  12.9974  13.3270  14.8941  17.1364  17.9557  18.3867  19.0182
    21.9305  22.3282  25.1112  25.2835  26.4136  27.4472

     occupation numbers 
     1.0000   1.0000   1.0000   1.0000   1.0000   1.0000   1.0000   1.0000
     1.0000   1.0000   1.0000   1.0000   1.0000   1.0000   1.0001   0.9766
    -0.0000  -0.0000  -0.0000  -0.0000  -0.0000  -0.0000  -0.0000  -0.0000
    -0.0000  -0.0000  -0.0000  -0.0000  -0.0000  -0.0000

          k = 0.6250-0.3750 0.6250 (  2278 PWs)   bands (ev):

     3.7420   4.9019   5.3012   5.4279   5.6047   5.6721   5.9880   6.0897
     6.1749   6.4258   6.4932   6.6648   7.4520   7.4973   7.8220   7.8403
     8.4242  12.6669  13.2048  14.9645  16.9779  17.5013  18.6869  20.5104
    22.7838  23.0831  24.5556  24.8377  27.0434  28.1171

     occupation numbers 
     1.0000   1.0000   1.0000   1.0000   1.0000   1.0000   1.0000   1.0000
     1.0000   1.0000   1.0000   1.0000   1.0000   1.0000   1.0065   1.0147
    -0.0000  -0.0000  -0.0000  -0.0000  -0.0000  -0.0000  -0.0000  -0.0000
    -0.0000  -0.0000  -0.0000  -0.0000  -0.0000  -0.0000

          k = 0.5000-0.2500 0.5000 (  2266 PWs)   bands (ev):

     3.5166   4.9923   5.3206   5.4008   5.6328   5.6815   5.8904   6.0277
     6.2236   6.4414   6.5253   6.7244   7.4331   7.5189   7.7421   7.9086
     8.6946  12.2892  13.8491  15.1994  16.8525  17.0873  18.8960  20.8604
    21.1744  22.8250  25.0327  26.1305  26.5537  27.4941

     occupation numbers 
     1.0000   1.0000   1.0000   1.0000   1.0000   1.0000   1.0000   1.0000
     1.0000   1.0000   1.0000   1.0000   1.0000   1.0000   1.0000   0.9873
    -0.0000  -0.0000  -0.0000  -0.0000  -0.0000  -0.0000  -0.0000  -0.0000
    -0.0000  -0.0000  -0.0000  -0.0000  -0.0000  -0.0000

          k = 0.3750-0.1250 0.3750 (  2262 PWs)   bands (ev):

     2.6545   5.0916   5.1969   5.2378   5.5349   5.5800   6.0000   6.1105
     6.2786   6.6850   6.6991   6.9423   7.4280   7.4715   7.7186   7.9502
    10.1679  12.2833  14.8331  15.6786  16.6397  16.8548  18.4517  19.6946
    19.7457  22.7821  24.0436  25.0774  26.1151  27.7352

     occupation numbers 
     1.0000   1.0000   1.0000   1.0000   1.0000   1.0000   1.0000   1.0000
     1.0000   1.0000   1.0000   1.0000   1.0000   1.0000   1.0000   0.6480
    -0.0000  -0.0000  -0.0000  -0.0000  -0.0000  -0.0000  -0.0000  -0.0000
    -0.0000  -0.0000  -0.0000  -0.0000  -0.0000  -0.0000

          k = 0.2500 0.0000 0.2500 (  2255 PWs)   bands (ev):

     1.9654   5.0680   5.0732   5.1590   5.3813   5.4189   6.0811   6.2362
     6.2587   6.9318   6.9609   7.1907   7.4022   7.4372   7.7837   7.9326
    12.0393  12.9051  15.7131  16.1462  16.3689  16.7311  17.4517  19.1516
    19.2195  21.1971  21.8235  23.6412  25.8621  26.3053

     occupation numbers 
     1.0000   1.0000   1.0000   1.0000   1.0000   1.0000   1.0000   1.0000
     1.0000   1.0000   1.0000   1.0000   1.0000   1.0000   1.0006   0.8330
    -0.0000  -0.0000  -0.0000  -0.0000  -0.0000  -0.0000  -0.0000  -0.0000
    -0.0000  -0.0000  -0.0000  -0.0000  -0.0000  -0.0000

          k = 0.0000 0.5000 0.0000 (  2269 PWs)   bands (ev):

     2.4679   4.9160   5.1399   5.2137   5.5029   5.5029   5.7958   6.3548
     6.3548   6.8071   7.1706   7.3205   7.3395   7.3395   7.6391   7.9235
    12.2227  12.2227  12.6324  13.1069  16.3172  19.3759  19.3759  20.8812
    21.5974  22.4988  22.4988  23.6703  23.7578  28.9202

     occupation numbers 
     1.0000   1.0000   1.0000   1.0000   1.0000   1.0000   1.0000   1.0000
     1.0000   1.0000   1.0000   1.0000   1.0000   1.0000   1.0000   0.9060
    -0.0000  -0.0000  -0.0000  -0.0000  -0.0000  -0.0000  -0.0000  -0.0000
    -0.0000  -0.0000  -0.0000  -0.0000  -0.0000  -0.0000

          k =-0.1250 0.6250-0.1250 (  2281 PWs)   bands (ev):

     3.0937   4.8471   5.0559   5.3480   5.5994   5.6039   5.7738   6.3560
     6.3785   6.7660   6.9947   7.1439   7.3899   7.4560   7.6566   7.9327
    10.2827  11.6826  11.6928  13.6984  16.5804  19.4473  19.7439  21.5425
    22.8920  23.3645  24.2267  24.2974  25.3892  27.3084

     occupation numbers 
     1.0000   1.0000   1.0000   1.0000   1.0000   1.0000   1.0000   1.0000
     1.0000   1.0000   1.0000   1.0000   1.0000   1.0000   1.0000   0.8323
    -0.0000  -0.0000  -0.0000  -0.0000  -0.0000  -0.0000  -0.0000  -0.0000
    -0.0000  -0.0000  -0.0000  -0.0000  -0.0000  -0.0000

          k = 0.7500-0.2500 0.7500 (  2280 PWs)   bands (ev):

     3.8596   4.7274   5.0342   5.4396   5.5336   5.7492   5.9821   6.2724
     6.4766   6.6488   6.6645   6.9912   7.3498   7.5745   7.8367   7.9236
     8.6545  10.8195  11.7877  14.2588  17.8512  19.0763  19.4425  21.3704
    23.0620  23.3991  24.9380  25.0062  26.8762  27.9917

     occupation numbers 
     1.0000   1.0000   1.0000   1.0000   1.0000   1.0000   1.0000   1.0000
     1.0000   1.0000   1.0000   1.0000   1.0000   1.0000   1.0127   0.9054
    -0.0000  -0.0000  -0.0000  -0.0000  -0.0000  -0.0000  -0.0000  -0.0000
    -0.0000  -0.0000  -0.0000  -0.0000  -0.0000  -0.0000

          k = 0.6250-0.1250 0.6250 (  2277 PWs)   bands (ev):

     4.0545   4.7416   5.1829   5.4021   5.4474   5.8561   6.0706   6.1836
     6.3168   6.4749   6.6552   6.8822   7.3529   7.5357   7.8347   7.9537
     8.5703  10.2724  12.4803  14.6224  18.3987  18.9791  19.9747  20.7247
    21.1122  22.2129  25.4970  26.6693  27.4698  28.0830

     occupation numbers 
     1.0000   1.0000   1.0000   1.0000   1.0000   1.0000   1.0000   1.0000
     1.0000   1.0000   1.0000   1.0000   1.0000   1.0000   1.0117   0.6058
    -0.0000  -0.0000  -0.0000  -0.0000  -0.0000  -0.0000  -0.0000  -0.0000
    -0.0000  -0.0000  -0.0000  -0.0000  -0.0000  -0.0000

          k = 0.5000 0.0000 0.5000 (  2269 PWs)   bands (ev):

     3.3598   4.9798   5.2114   5.3715   5.6196   5.7471   5.9611   5.9857
     6.2985   6.4701   6.6363   6.9565   7.3895   7.5437   7.6520   7.9839
     9.7557  10.3720  13.5946  15.0687  18.0578  18.0887  18.7244  19.8270
    21.6146  22.7248  24.1433  26.1433  26.5312  28.2804

     occupation numbers 
     1.0000   1.0000   1.0000   1.0000   1.0000   1.0000   1.0000   1.0000
     1.0000   1.0000   1.0000   1.0000   1.0000   1.0000   1.0000   0.2453
    -0.0000  -0.0000  -0.0000  -0.0000  -0.0000  -0.0000  -0.0000  -0.0000
    -0.0000  -0.0000  -0.0000  -0.0000  -0.0000  -0.0000

          k = 0.0000 0.7500 0.0000 (  2269 PWs)   bands (ev):

     3.4998   4.6740   4.9468   5.4516   5.6384   5.6384   5.7915   6.3909
     6.3909   6.8439   7.1281   7.2351   7.4636   7.6084   7.6084   7.9752
    10.1797  10.7865  10.7865  12.7214  15.9695  21.2476  21.2476  23.4229
    23.7005  24.1926  24.5201  24.5201  24.9774  27.2199

     occupation numbers 
     1.0000   1.0000   1.0000   1.0000   1.0000   1.0000   1.0000   1.0000
     1.0000   1.0000   1.0000   1.0000   1.0000   1.0000   1.0000   0.3427
    -0.0000  -0.0000  -0.0000  -0.0000  -0.0000  -0.0000  -0.0000  -0.0000
    -0.0000  -0.0000  -0.0000  -0.0000  -0.0000  -0.0000

          k = 0.8750-0.1250 0.8750 (  2274 PWs)   bands (ev):

     4.0088   4.5568   4.9313   5.5030   5.5729   5.7431   5.9213   6.3250
     6.5127   6.8261   7.0351   7.1651   7.2727   7.8316   7.8735   8.1113
     9.0915   9.6499  10.6173  13.3715  16.3525  21.2455  21.5195  23.2298
    23.3001  24.5403  25.1480  25.3327  26.4293  26.9561

     occupation numbers 
     1.0000   1.0000   1.0000   1.0000   1.0000   1.0000   1.0000   1.0000
     1.0000   1.0000   1.0000   1.0000   1.0000   1.0102   1.0346  -0.0041
    -0.0000  -0.0000  -0.0000  -0.0000  -0.0000  -0.0000  -0.0000  -0.0000
    -0.0000  -0.0000  -0.0000  -0.0000  -0.0000  -0.0000

          k = 0.7500 0.0000 0.7500 (  2273 PWs)   bands (ev):

     4.4084   4.4717   5.0156   5.3578   5.4792   5.8956   6.0159   6.2092
     6.6512   6.7025   6.8335   7.0514   7.2643   7.9085   7.9643   8.0054
     8.6585   8.9403  11.2911  14.0999  17.7578  20.5493  20.9571  21.1372
    21.4878  24.7660  24.9605  26.3254  27.0020  28.2510

     occupation numbers 
     1.0000   1.0000   1.0000   1.0000   1.0000   1.0000   1.0000   1.0000
     1.0000   1.0000   1.0000   1.0000   1.0000   0.9877   0.4745   0.0653
    -0.0000  -0.0000  -0.0000  -0.0000  -0.0000  -0.0000  -0.0000  -0.0000
    -0.0000  -0.0000  -0.0000  -0.0000  -0.0000  -0.0000

          k = 0.0000-1.0000 0.0000 (  2272 PWs)   bands (ev):

     4.0906   4.4320   4.9498   5.5685   5.6875   5.6875   5.9367   6.3668
     6.3668   6.8965   7.0911   7.1668   7.3918   7.9231   7.9231   8.3958
     8.5841  10.0960  10.0960  12.6490  15.8747  22.8087  22.8087  23.7202
    24.0952  24.5273  24.5273  25.1149  26.6045  26.6047

     occupation numbers 
     1.0000   1.0000   1.0000   1.0000   1.0000   1.0000   1.0000   1.0000
     1.0000   1.0000   1.0000   1.0000   1.0000   0.9088   0.9088  -0.0000
    -0.0000  -0.0000  -0.0000  -0.0000  -0.0000  -0.0000  -0.0000  -0.0000
    -0.0000  -0.0000  -0.0000  -0.0000  -0.0000  -0.0000

          k =-0.2500 0.5000 0.0000 (  2272 PWs)   bands (ev):

     2.7113   4.9864   5.1350   5.2811   5.5425   5.5941   5.8255   6.2703
     6.3219   6.7441   6.8312   7.0767   7.4071   7.4628   7.6633   7.9507
    10.7869  11.4779  13.3367  15.0660  17.0852  17.4330  19.2234  20.1080
    20.9783  23.1322  23.9510  24.1064  25.5548  27.3860

     occupation numbers 
     1.0000   1.0000   1.0000   1.0000   1.0000   1.0000   1.0000   1.0000
     1.0000   1.0000   1.0000   1.0000   1.0000   1.0000   1.0000   0.6418
    -0.0000  -0.0000  -0.0000  -0.0000  -0.0000  -0.0000  -0.0000  -0.0000
    -0.0000  -0.0000  -0.0000  -0.0000  -0.0000  -0.0000

          k = 0.6250-0.3750 0.8750 (  2272 PWs)   bands (ev):

     3.4979   4.9093   5.1076   5.4294   5.6249   5.6623   5.9339   6.1772
     6.3555   6.5262   6.6431   6.9512   7.3715   7.5498   7.7110   7.9518
     9.1885  11.0928  12.3718  15.6788  16.7642  18.2350  19.5961  20.6797
    21.9329  22.8978  24.8998  25.5429  26.6065  27.5932

     occupation numbers 
     1.0000   1.0000   1.0000   1.0000   1.0000   1.0000   1.0000   1.0000
     1.0000   1.0000   1.0000   1.0000   1.0000   1.0000   1.0000   0.6283
    -0.0000  -0.0000  -0.0000  -0.0000  -0.0000  -0.0000  -0.0000  -0.0000
    -0.0000  -0.0000  -0.0000  -0.0000  -0.0000  -0.0000

          k = 0.5000-0.2500 0.7500 (  2270 PWs)   bands (ev):

     4.0580   4.7008   5.1626   5.4089   5.6319   5.7161   6.0943   6.1315
     6.3133   6.4452   6.6611   6.8093   7.3506   7.6166   7.8103   7.9209
     8.3288  11.2047  11.8699  15.8359  16.5086  19.4681  19.8993  20.5976
    21.0703  23.4091  24.4790  27.1162  27.3329  27.6303

     occupation numbers 
     1.0000   1.0000   1.0000   1.0000   1.0000   1.0000   1.0000   1.0000
     1.0000   1.0000   1.0000   1.0000   1.0000   1.0000   1.0035   0.9238
    -0.0000  -0.0000  -0.0000  -0.0000  -0.0000  -0.0000  -0.0000  -0.0000
    -0.0000  -0.0000  -0.0000  -0.0000  -0.0000  -0.0000

          k = 0.7500-0.2500 1.0000 (  2270 PWs)   bands (ev):

     3.6967   4.7489   4.9419   5.4414   5.5798   5.7212   5.8891   6.3245
     6.4580   6.7481   6.8546   7.1317   7.2954   7.6517   7.7610   7.9783
     9.7117  10.2178  10.8159  14.3903  16.7670  18.9326  21.4630  22.4158
    23.1778  23.4689  24.2435  25.6111  26.2251  27.3432

     occupation numbers 
     1.0000   1.0000   1.0000   1.0000   1.0000   1.0000   1.0000   1.0000
     1.0000   1.0000   1.0000   1.0000   1.0000   1.0000   1.0001   0.3065
    -0.0000  -0.0000  -0.0000  -0.0000  -0.0000  -0.0000  -0.0000  -0.0000
    -0.0000  -0.0000  -0.0000  -0.0000  -0.0000  -0.0000

          k = 0.6250-0.1250 0.8750 (  2267 PWs)   bands (ev):

     4.2810   4.6023   4.9851   5.3215   5.6048   5.8649   6.0048   6.2379
     6.4679   6.6764   6.7757   7.0748   7.2447   7.8634   7.9561   8.0995
     8.4899   9.7136  10.5529  15.2948  17.8804  18.3448  20.4617  21.8299
    23.2764  23.9701  24.6628  26.2076  26.8993  27.3334

     occupation numbers 
     1.0000   1.0000   1.0000   1.0000   1.0000   1.0000   1.0000   1.0000
     1.0000   1.0000   1.0000   1.0000   1.0000   1.0297   0.5762  -0.0076
    -0.0000  -0.0000  -0.0000  -0.0000  -0.0000  -0.0000  -0.0000  -0.0000
    -0.0000  -0.0000  -0.0000  -0.0000  -0.0000  -0.0000

          k = 0.5000 0.0000 0.7500 (  2274 PWs)   bands (ev):

     4.1249   4.7331   5.0469   5.3217   5.6482   5.8332   6.0379   6.1606
     6.3149   6.6275   6.7036   7.0190   7.2790   7.6727   7.8520   7.9959
     9.0829   9.4400  11.2993  15.9244  17.3281  18.7100  20.0567  21.4746
    21.8867  23.5194  24.4210  26.8540  26.9850  28.4105

     occupation numbers 
     1.0000   1.0000   1.0000   1.0000   1.0000   1.0000   1.0000   1.0000
     1.0000   1.0000   1.0000   1.0000   1.0000   1.0000   1.0221   0.1333
    -0.0000  -0.0000  -0.0000  -0.0000  -0.0000  -0.0000  -0.0000  -0.0000
    -0.0000  -0.0000  -0.0000  -0.0000  -0.0000  -0.0000

          k =-0.2500-1.0000 0.0000 (  2260 PWs)   bands (ev):

     4.2623   4.5097   4.9482   5.4214   5.5466   5.8411   5.9450   6.3121
     6.6495   6.8067   6.9079   7.1056   7.2050   7.9362   7.9939   8.4959
     8.5639   9.5902   9.7144  14.1857  16.6553  20.4084  21.1660  23.2265
    24.0082  24.3138  25.6264  25.7681  26.2772  26.5330

     occupation numbers 
     1.0000   1.0000   1.0000   1.0000   1.0000   1.0000   1.0000   1.0000
     1.0000   1.0000   1.0000   1.0000   1.0000   0.7994   0.1498  -0.0000
    -0.0000  -0.0000  -0.0000  -0.0000  -0.0000  -0.0000  -0.0000  -0.0000
    -0.0000  -0.0000  -0.0000  -0.0000  -0.0000  -0.0000

          k =-0.5000-1.0000 0.0000 (  2268 PWs)   bands (ev):

     4.4615   4.6232   4.9491   5.1820   5.7940   5.8686   5.9802   6.2631
     6.2772   6.7023   6.8603   7.1258   7.2048   7.9424   8.0566   8.5436
     8.7679   9.1819   9.3468  17.0546  17.1099  18.4208  18.7481  23.8662
    24.0725  24.3279  25.3095  25.3818  25.6716  26.7007

     occupation numbers 
     1.0000   1.0000   1.0000   1.0000   1.0000   1.0000   1.0000   1.0000
     1.0000   1.0000   1.0000   1.0000   1.0000   0.7356  -0.0323  -0.0000
    -0.0000  -0.0000  -0.0000  -0.0000  -0.0000  -0.0000  -0.0000  -0.0000
    -0.0000  -0.0000  -0.0000  -0.0000  -0.0000  -0.0000

     the Fermi energy is     7.9623 ev

!    total energy              =   -1145.96987983 Ry

     total all-electron energy =    -43178.929259 Ry
     estimated scf accuracy    <          8.4E-09 Ry
     smearing contrib. (-TS)   =      -0.00049042 Ry
     internal energy E=F+TS    =   -1145.96938941 Ry

     The total energy is F=E-TS. E is the sum of the following terms:
     one-electron contribution =     -74.63120509 Ry
     hartree contribution      =      76.17180177 Ry
     xc contribution           =    -109.84731855 Ry
     ewald contribution        =    -178.11261462 Ry
     one-center paw contrib.   =    -859.55005292 Ry
      -> PAW hartree energy AE =     220.66762235 Ry
      -> PAW hartree energy PS =    -219.54156512 Ry
      -> PAW xc energy AE      =    -969.82833135 Ry
      -> PAW xc energy PS      =     109.15222120 Ry
      -> total E_H with PAW    =      77.29785900 Ry
      -> total E_XC with PAW   =    -970.52342870 Ry

     convergence has been achieved in  12 iterations

     Writing output data file ././CuPtNi.save/

     init_run     :      3.73s CPU      2.69s WALL (       1 calls)
     electrons    :    106.79s CPU     64.45s WALL (       1 calls)

     Called by init_run:
     wfcinit      :      2.49s CPU      1.54s WALL (       1 calls)
     wfcinit:atom :      0.04s CPU      0.02s WALL (      29 calls)
     wfcinit:wfcr :      2.35s CPU      1.48s WALL (      29 calls)
     potinit      :      0.35s CPU      0.37s WALL (       1 calls)
     hinit0       :      0.73s CPU      0.66s WALL (       1 calls)

     Called by electrons:
     c_bands      :     79.29s CPU     46.05s WALL (      12 calls)
     sum_band     :     20.91s CPU     12.51s WALL (      12 calls)
     v_of_rho     :      0.65s CPU      0.40s WALL (      13 calls)
     v_h          :      0.05s CPU      0.03s WALL (      13 calls)
     v_xc         :      0.60s CPU      0.37s WALL (      13 calls)
     newd         :      1.59s CPU      1.34s WALL (      13 calls)
     PAW_pot      :      4.70s CPU      4.50s WALL (      13 calls)
     mix_rho      :      0.09s CPU      0.06s WALL (      12 calls)

     Called by c_bands:
     init_us_2    :      1.64s CPU      0.80s WALL (     725 calls)
     cegterg      :     73.40s CPU     42.78s WALL (     348 calls)

     Called by sum_band:
     sum_band:wei :      0.03s CPU      0.01s WALL (      12 calls)
     sum_band:loo :     17.87s CPU     10.93s WALL (      12 calls)
     sum_band:buf :      0.09s CPU      0.05s WALL (     348 calls)
     sum_band:ini :      0.75s CPU      0.38s WALL (     348 calls)
     sum_band:cal :      0.30s CPU      0.17s WALL (     348 calls)
     sum_band:bec :      0.01s CPU      0.01s WALL (     348 calls)
     addusdens    :      2.92s CPU      1.51s WALL (      12 calls)
     addusd:skk   :      0.01s CPU      0.00s WALL (      36 calls)
     addusd:dgemm :      1.58s CPU      0.60s WALL (      36 calls)
     addusd:qvan2 :      1.18s CPU      0.70s WALL (      36 calls)

     Called by *egterg:
     cdiaghg      :      2.91s CPU      1.18s WALL (    1247 calls)
     cegterg:over :      1.49s CPU      0.56s WALL (     899 calls)
     cegterg:upda :      1.22s CPU      0.47s WALL (     899 calls)
     cegterg:last :      1.63s CPU      0.62s WALL (     589 calls)
     h_psi        :     65.59s CPU     40.25s WALL (    1276 calls)
     s_psi        :      1.06s CPU      0.45s WALL (    1276 calls)
     g_psi        :      0.57s CPU      0.20s WALL (     899 calls)

     Called by h_psi:
     h_psi:calbec :      1.08s CPU      0.86s WALL (    1276 calls)
     vloc_psi     :     63.07s CPU     38.72s WALL (    1276 calls)
     add_vuspsi   :      1.03s CPU      0.48s WALL (    1276 calls)

     General routines
     calbec       :      1.37s CPU      1.02s WALL (    1624 calls)
     fft          :      0.34s CPU      0.21s WALL (     143 calls)
     ffts         :      0.02s CPU      0.01s WALL (      12 calls)
     fftw         :     70.10s CPU     43.13s WALL (   61180 calls)

     Parallel routines

     PAW routines
     PAW_pot      :      4.70s CPU      4.50s WALL (      13 calls)
     PAW_symme    :      0.01s CPU      0.01s WALL (      25 calls)

     PWSCF        :   1m50.78s CPU   1m 7.41s WALL


   This run was terminated on:  13: 6:19  22May2024            

=------------------------------------------------------------------------------=
   JOB DONE.
=------------------------------------------------------------------------------=
