
     Program PWSCF v.6.7MaX starts on 22May2024 at 13: 9:47 

     This program is part of the open-source Quantum ESPRESSO suite
     for quantum simulation of materials; please cite
         "P. Giannozzi et al., J. Phys.:Condens. Matter 21 395502 (2009);
         "P. Giannozzi et al., J. Phys.:Condens. Matter 29 465901 (2017);
          URL http://www.quantum-espresso.org", 
     in publications or presentations arising from this work. More details at
     http://www.quantum-espresso.org/quote

     Parallel version (MPI), running on     1 processors

     MPI processes distributed on     1 nodes
     Waiting for input...
     Reading input from standard input

     Current dimensions of program PWSCF are:
     Max number of different atomic species (ntypx) = 10
     Max number of k-points (npk) =  40000
     Max angular momentum in pseudopotentials (lmaxx) =  3
     file Cu.UPF: wavefunction(s)  4S 3D renormalized
     file Pt.UPF: wavefunction(s)  6S 5D renormalized
     file Ni.UPF: wavefunction(s)  4S 3D renormalized

     Subspace diagonalization in iterative solution of the eigenvalue problem:
     a serial algorithm will be used


     G-vector sticks info
     --------------------
     sticks:   dense  smooth     PW     G-vecs:    dense   smooth      PW
     Sum         967     967    295                20107    20107    3287



     bravais-lattice index     =            2
     lattice parameter (alat)  =      11.9000  a.u.
     unit-cell volume          =     421.2898 (a.u.)^3
     number of atoms/cell      =            3
     number of atomic types    =            3
     number of electrons       =        31.00
     number of Kohn-Sham states=           30
     kinetic-energy cutoff     =      50.0000  Ry
     charge density cutoff     =     200.0000  Ry
     scf convergence threshold =      1.0E-07
     mixing beta               =       0.7000
     number of iterations used =            8  plain     mixing
     Exchange-correlation= SLA  PW   PBX  PBC
                           (   1   4   3   4   0   0   0)

     celldm(1)=  11.900000  celldm(2)=   0.000000  celldm(3)=   0.000000
     celldm(4)=   0.000000  celldm(5)=   0.000000  celldm(6)=   0.000000

     crystal axes: (cart. coord. in units of alat)
               a(1) = (  -0.500000   0.000000   0.500000 )  
               a(2) = (   0.000000   0.500000   0.500000 )  
               a(3) = (  -0.500000   0.500000   0.000000 )  

     reciprocal axes: (cart. coord. in units 2 pi/alat)
               b(1) = ( -1.000000 -1.000000  1.000000 )  
               b(2) = (  1.000000  1.000000  1.000000 )  
               b(3) = ( -1.000000  1.000000 -1.000000 )  


     PseudoPot. # 1 for Cu read from file:
     ././Cu.UPF
     MD5 check sum: cfffd1f38ee05704b3e17f46f1730a6f
     Pseudo is Projector augmented-wave + core cor, Zval = 11.0
     Generated using &quot;atomic&quot; code by A. Dal Corso  v.6.3
     Shape of augmentation charge: PSQ
     Using radial grid of 1199 points,  6 beta functions with: 
                l(1) =   0
                l(2) =   0
                l(3) =   1
                l(4) =   1
                l(5) =   2
                l(6) =   2
     Q(r) pseudized with 0 coefficients 


     PseudoPot. # 2 for Pt read from file:
     ././Pt.UPF
     MD5 check sum: c5224e9cd7a5e36e81f2def9f50bb494
     Pseudo is Projector augmented-wave + core cor, Zval = 10.0
     Generated using &quot;atomic&quot; code by A. Dal Corso  v.6.3
     Shape of augmentation charge: PSQ
     Using radial grid of 1277 points,  6 beta functions with: 
                l(1) =   0
                l(2) =   0
                l(3) =   1
                l(4) =   1
                l(5) =   2
                l(6) =   2
     Q(r) pseudized with 0 coefficients 


     PseudoPot. # 3 for Ni read from file:
     ././Ni.UPF
     MD5 check sum: 5bc40517020091042a126ac2b4ecef1e
     Pseudo is Projector augmented-wave + core cor, Zval = 10.0
     Generated using "atomic" code by A. Dal Corso  v.5.0.2 svn rev. 9415
     Shape of augmentation charge: PSQ
     Using radial grid of 1195 points,  6 beta functions with: 
                l(1) =   0
                l(2) =   0
                l(3) =   1
                l(4) =   1
                l(5) =   2
                l(6) =   2
     Q(r) pseudized with 0 coefficients 


     atomic species   valence    mass     pseudopotential
        Cu            11.00    63.54600     Cu( 1.00)
        Pt            10.00   195.08000     Pt( 1.00)
        Ni            10.00    58.69000     Ni( 1.00)

     24 Sym. Ops. (no inversion) found


                                    s                        frac. trans.

      isym =  1     identity                                     

 cryst.   s( 1) = (     1          0          0      )
                  (     0          1          0      )
                  (     0          0          1      )

 cart.    s( 1) = (  1.0000000  0.0000000  0.0000000 )
                  (  0.0000000  1.0000000  0.0000000 )
                  (  0.0000000  0.0000000  1.0000000 )


      isym =  2     180 deg rotation - cart. axis [0,0,1]        

 cryst.   s( 2) = (     0          1         -1      )
                  (     1          0         -1      )
                  (     0          0         -1      )

 cart.    s( 2) = ( -1.0000000  0.0000000  0.0000000 )
                  (  0.0000000 -1.0000000  0.0000000 )
                  (  0.0000000  0.0000000  1.0000000 )


      isym =  3     180 deg rotation - cart. axis [0,1,0]        

 cryst.   s( 3) = (    -1          0          0      )
                  (    -1          0          1      )
                  (    -1          1          0      )

 cart.    s( 3) = ( -1.0000000  0.0000000  0.0000000 )
                  (  0.0000000  1.0000000  0.0000000 )
                  (  0.0000000  0.0000000 -1.0000000 )


      isym =  4     180 deg rotation - cart. axis [1,0,0]        

 cryst.   s( 4) = (     0         -1          1      )
                  (     0         -1          0      )
                  (     1         -1          0      )

 cart.    s( 4) = (  1.0000000  0.0000000  0.0000000 )
                  (  0.0000000 -1.0000000  0.0000000 )
                  (  0.0000000  0.0000000 -1.0000000 )


      isym =  5     120 deg rotation - cart. axis [-1,-1,-1]     

 cryst.   s( 5) = (    -1          0          1      )
                  (    -1          1          0      )
                  (    -1          0          0      )

 cart.    s( 5) = (  0.0000000  1.0000000  0.0000000 )
                  (  0.0000000  0.0000000  1.0000000 )
                  (  1.0000000  0.0000000  0.0000000 )


      isym =  6     120 deg rotation - cart. axis [-1,1,1]       

 cryst.   s( 6) = (     0          1          0      )
                  (     0          0          1      )
                  (     1          0          0      )

 cart.    s( 6) = (  0.0000000 -1.0000000  0.0000000 )
                  (  0.0000000  0.0000000  1.0000000 )
                  ( -1.0000000  0.0000000  0.0000000 )


      isym =  7     120 deg rotation - cart. axis [1,1,-1]       

 cryst.   s( 7) = (     1          0         -1      )
                  (     0          0         -1      )
                  (     0          1         -1      )

 cart.    s( 7) = (  0.0000000  1.0000000  0.0000000 )
                  (  0.0000000  0.0000000 -1.0000000 )
                  ( -1.0000000  0.0000000  0.0000000 )


      isym =  8     120 deg rotation - cart. axis [1,-1,1]       

 cryst.   s( 8) = (     0         -1          0      )
                  (     1         -1          0      )
                  (     0         -1          1      )

 cart.    s( 8) = (  0.0000000 -1.0000000  0.0000000 )
                  (  0.0000000  0.0000000 -1.0000000 )
                  (  1.0000000  0.0000000  0.0000000 )


      isym =  9     120 deg rotation - cart. axis [1,1,1]        

 cryst.   s( 9) = (     0          0         -1      )
                  (     0          1         -1      )
                  (     1          0         -1      )

 cart.    s( 9) = (  0.0000000  0.0000000  1.0000000 )
                  (  1.0000000  0.0000000  0.0000000 )
                  (  0.0000000  1.0000000  0.0000000 )


      isym = 10     120 deg rotation - cart. axis [-1,1,-1]      

 cryst.   s(10) = (    -1          1          0      )
                  (    -1          0          0      )
                  (    -1          0          1      )

 cart.    s(10) = (  0.0000000  0.0000000  1.0000000 )
                  ( -1.0000000  0.0000000  0.0000000 )
                  (  0.0000000 -1.0000000  0.0000000 )


      isym = 11     120 deg rotation - cart. axis [1,-1,-1]      

 cryst.   s(11) = (     0          0          1      )
                  (     1          0          0      )
                  (     0          1          0      )

 cart.    s(11) = (  0.0000000  0.0000000 -1.0000000 )
                  ( -1.0000000  0.0000000  0.0000000 )
                  (  0.0000000  1.0000000  0.0000000 )


      isym = 12     120 deg rotation - cart. axis [-1,-1,1]      

 cryst.   s(12) = (     1         -1          0      )
                  (     0         -1          1      )
                  (     0         -1          0      )

 cart.    s(12) = (  0.0000000  0.0000000 -1.0000000 )
                  (  1.0000000  0.0000000  0.0000000 )
                  (  0.0000000 -1.0000000  0.0000000 )


      isym = 13     inv. 180 deg rotation - cart. axis [1,1,0]   

 cryst.   s(13) = (     0          1          0      )
                  (     1          0          0      )
                  (     0          0          1      )

 cart.    s(13) = (  0.0000000 -1.0000000  0.0000000 )
                  ( -1.0000000  0.0000000  0.0000000 )
                  (  0.0000000  0.0000000  1.0000000 )


      isym = 14     inv. 180 deg rotation - cart. axis [1,-1,0]  

 cryst.   s(14) = (     1          0         -1      )
                  (     0          1         -1      )
                  (     0          0         -1      )

 cart.    s(14) = (  0.0000000  1.0000000  0.0000000 )
                  (  1.0000000  0.0000000  0.0000000 )
                  (  0.0000000  0.0000000  1.0000000 )


      isym = 15     inv.  90 deg rotation - cart. axis [0,0,-1]  

 cryst.   s(15) = (     0         -1          0      )
                  (     0         -1          1      )
                  (     1         -1          0      )

 cart.    s(15) = (  0.0000000 -1.0000000  0.0000000 )
                  (  1.0000000  0.0000000  0.0000000 )
                  (  0.0000000  0.0000000 -1.0000000 )


      isym = 16     inv.  90 deg rotation - cart. axis [0,0,1]   

 cryst.   s(16) = (    -1          0          1      )
                  (    -1          0          0      )
                  (    -1          1          0      )

 cart.    s(16) = (  0.0000000  1.0000000  0.0000000 )
                  ( -1.0000000  0.0000000  0.0000000 )
                  (  0.0000000  0.0000000 -1.0000000 )


      isym = 17     inv. 180 deg rotation - cart. axis [1,0,1]   

 cryst.   s(17) = (     1          0          0      )
                  (     0          0          1      )
                  (     0          1          0      )

 cart.    s(17) = (  0.0000000  0.0000000 -1.0000000 )
                  (  0.0000000  1.0000000  0.0000000 )
                  ( -1.0000000  0.0000000  0.0000000 )


      isym = 18     inv. 180 deg rotation - cart. axis [-1,0,1]  

 cryst.   s(18) = (    -1          0          0      )
                  (    -1          1          0      )
                  (    -1          0          1      )

 cart.    s(18) = (  0.0000000  0.0000000  1.0000000 )
                  (  0.0000000  1.0000000  0.0000000 )
                  (  1.0000000  0.0000000  0.0000000 )


      isym = 19     inv.  90 deg rotation - cart. axis [0,1,0]   

 cryst.   s(19) = (     0         -1          1      )
                  (     1         -1          0      )
                  (     0         -1          0      )

 cart.    s(19) = (  0.0000000  0.0000000 -1.0000000 )
                  (  0.0000000 -1.0000000  0.0000000 )
                  (  1.0000000  0.0000000  0.0000000 )


      isym = 20     inv.  90 deg rotation - cart. axis [0,-1,0]  

 cryst.   s(20) = (     0          1         -1      )
                  (     0          0         -1      )
                  (     1          0         -1      )

 cart.    s(20) = (  0.0000000  0.0000000  1.0000000 )
                  (  0.0000000 -1.0000000  0.0000000 )
                  ( -1.0000000  0.0000000  0.0000000 )


      isym = 21     inv. 180 deg rotation - cart. axis [0,1,1]   

 cryst.   s(21) = (     1         -1          0      )
                  (     0         -1          0      )
                  (     0         -1          1      )

 cart.    s(21) = (  1.0000000  0.0000000  0.0000000 )
                  (  0.0000000  0.0000000 -1.0000000 )
                  (  0.0000000 -1.0000000  0.0000000 )


      isym = 22     inv. 180 deg rotation - cart. axis [0,1,-1]  

 cryst.   s(22) = (     0          0          1      )
                  (     0          1          0      )
                  (     1          0          0      )

 cart.    s(22) = (  1.0000000  0.0000000  0.0000000 )
                  (  0.0000000  0.0000000  1.0000000 )
                  (  0.0000000  1.0000000  0.0000000 )


      isym = 23     inv.  90 deg rotation - cart. axis [-1,0,0]  

 cryst.   s(23) = (     0          0         -1      )
                  (     1          0         -1      )
                  (     0          1         -1      )

 cart.    s(23) = ( -1.0000000  0.0000000  0.0000000 )
                  (  0.0000000  0.0000000 -1.0000000 )
                  (  0.0000000  1.0000000  0.0000000 )


      isym = 24     inv.  90 deg rotation - cart. axis [1,0,0]   

 cryst.   s(24) = (    -1          1          0      )
                  (    -1          0          1      )
                  (    -1          0          0      )

 cart.    s(24) = ( -1.0000000  0.0000000  0.0000000 )
                  (  0.0000000  0.0000000  1.0000000 )
                  (  0.0000000 -1.0000000  0.0000000 )


     point group T_d (-43m) 
     there are  5 classes
     the character table:

       E     8C3   3C2   6S4   6s_d 
A_1    1.00  1.00  1.00  1.00  1.00
A_2    1.00  1.00  1.00 -1.00 -1.00
E      2.00 -1.00  2.00  0.00  0.00
T_1    3.00  0.00 -1.00  1.00 -1.00
T_2    3.00  0.00 -1.00 -1.00  1.00

     the symmetry operations in each class and the name of the first element:

     E        1
          identity                                               
     8C3      5    7    8    6   12    9   10   11
          120 deg rotation - cart. axis [-1,-1,-1]               
     3C2      2    3    4
          180 deg rotation - cart. axis [0,0,1]                  
     6S4     15   16   20   19   23   24
          inv.  90 deg rotation - cart. axis [0,0,-1]            
     6s_d    13   14   17   18   21   22
          inv. 180 deg rotation - cart. axis [1,1,0]             

   Cartesian axes

     site n.     atom                  positions (alat units)
         1           Cu  tau(   1) = (   0.0000000   0.0000000   0.0000000  )
         2           Pt  tau(   2) = (   0.5000000   0.5000000   0.5000000  )
         3           Ni  tau(   3) = (   0.2500000   0.2500000   0.2500000  )

   Crystallographic axes

     site n.     atom                  positions (cryst. coord.)
         1           Cu  tau(   1) = (  0.0000000  0.0000000  0.0000000  )
         2           Pt  tau(   2) = ( -0.5000000  1.5000000 -0.5000000  )
         3           Ni  tau(   3) = ( -0.2500000  0.7500000 -0.2500000  )

     number of k points=    29  Methfessel-Paxton smearing, width (Ry)=  0.0050
                       cart. coord. in units 2pi/alat
        k(    1) = (   0.0000000   0.0000000   0.0000000), wk =   0.0039062
        k(    2) = (  -0.1250000   0.1250000  -0.1250000), wk =   0.0312500
        k(    3) = (  -0.2500000   0.2500000  -0.2500000), wk =   0.0312500
        k(    4) = (  -0.3750000   0.3750000  -0.3750000), wk =   0.0312500
        k(    5) = (   0.5000000  -0.5000000   0.5000000), wk =   0.0156250
        k(    6) = (   0.0000000   0.2500000   0.0000000), wk =   0.0234375
        k(    7) = (  -0.1250000   0.3750000  -0.1250000), wk =   0.0937500
        k(    8) = (  -0.2500000   0.5000000  -0.2500000), wk =   0.0937500
        k(    9) = (   0.6250000  -0.3750000   0.6250000), wk =   0.0937500
        k(   10) = (   0.5000000  -0.2500000   0.5000000), wk =   0.0937500
        k(   11) = (   0.3750000  -0.1250000   0.3750000), wk =   0.0937500
        k(   12) = (   0.2500000   0.0000000   0.2500000), wk =   0.0468750
        k(   13) = (   0.0000000   0.5000000   0.0000000), wk =   0.0234375
        k(   14) = (  -0.1250000   0.6250000  -0.1250000), wk =   0.0937500
        k(   15) = (   0.7500000  -0.2500000   0.7500000), wk =   0.0937500
        k(   16) = (   0.6250000  -0.1250000   0.6250000), wk =   0.0937500
        k(   17) = (   0.5000000   0.0000000   0.5000000), wk =   0.0468750
        k(   18) = (   0.0000000   0.7500000   0.0000000), wk =   0.0234375
        k(   19) = (   0.8750000  -0.1250000   0.8750000), wk =   0.0937500
        k(   20) = (   0.7500000   0.0000000   0.7500000), wk =   0.0468750
        k(   21) = (   0.0000000  -1.0000000   0.0000000), wk =   0.0117188
        k(   22) = (  -0.2500000   0.5000000   0.0000000), wk =   0.0937500
        k(   23) = (   0.6250000  -0.3750000   0.8750000), wk =   0.1875000
        k(   24) = (   0.5000000  -0.2500000   0.7500000), wk =   0.0937500
        k(   25) = (   0.7500000  -0.2500000   1.0000000), wk =   0.0937500
        k(   26) = (   0.6250000  -0.1250000   0.8750000), wk =   0.1875000
        k(   27) = (   0.5000000   0.0000000   0.7500000), wk =   0.0937500
        k(   28) = (  -0.2500000  -1.0000000   0.0000000), wk =   0.0468750
        k(   29) = (  -0.5000000  -1.0000000   0.0000000), wk =   0.0234375

                       cryst. coord.
        k(    1) = (   0.0000000   0.0000000   0.0000000), wk =   0.0039062
        k(    2) = (   0.0000000   0.0000000   0.1250000), wk =   0.0312500
        k(    3) = (   0.0000000   0.0000000   0.2500000), wk =   0.0312500
        k(    4) = (   0.0000000   0.0000000   0.3750000), wk =   0.0312500
        k(    5) = (   0.0000000   0.0000000  -0.5000000), wk =   0.0156250
        k(    6) = (   0.0000000   0.1250000   0.1250000), wk =   0.0234375
        k(    7) = (   0.0000000   0.1250000   0.2500000), wk =   0.0937500
        k(    8) = (   0.0000000   0.1250000   0.3750000), wk =   0.0937500
        k(    9) = (   0.0000000   0.1250000  -0.5000000), wk =   0.0937500
        k(   10) = (   0.0000000   0.1250000  -0.3750000), wk =   0.0937500
        k(   11) = (   0.0000000   0.1250000  -0.2500000), wk =   0.0937500
        k(   12) = (   0.0000000   0.1250000  -0.1250000), wk =   0.0468750
        k(   13) = (   0.0000000   0.2500000   0.2500000), wk =   0.0234375
        k(   14) = (   0.0000000   0.2500000   0.3750000), wk =   0.0937500
        k(   15) = (   0.0000000   0.2500000  -0.5000000), wk =   0.0937500
        k(   16) = (   0.0000000   0.2500000  -0.3750000), wk =   0.0937500
        k(   17) = (   0.0000000   0.2500000  -0.2500000), wk =   0.0468750
        k(   18) = (   0.0000000   0.3750000   0.3750000), wk =   0.0234375
        k(   19) = (   0.0000000   0.3750000  -0.5000000), wk =   0.0937500
        k(   20) = (   0.0000000   0.3750000  -0.3750000), wk =   0.0468750
        k(   21) = (   0.0000000  -0.5000000  -0.5000000), wk =   0.0117188
        k(   22) = (   0.1250000   0.2500000   0.3750000), wk =   0.0937500
        k(   23) = (   0.1250000   0.2500000  -0.5000000), wk =   0.1875000
        k(   24) = (   0.1250000   0.2500000  -0.3750000), wk =   0.0937500
        k(   25) = (   0.1250000   0.3750000  -0.5000000), wk =   0.0937500
        k(   26) = (   0.1250000   0.3750000  -0.3750000), wk =   0.1875000
        k(   27) = (   0.1250000   0.3750000  -0.2500000), wk =   0.0937500
        k(   28) = (   0.1250000  -0.5000000  -0.3750000), wk =   0.0468750
        k(   29) = (   0.2500000  -0.5000000  -0.2500000), wk =   0.0234375

     Dense  grid:    20107 G-vectors     FFT dimensions: (  40,  40,  40)

     Dynamical RAM for                 wfc:       1.15 MB

     Dynamical RAM for     wfc (w. buffer):      34.54 MB

     Dynamical RAM for           str. fact:       0.92 MB

     Dynamical RAM for           local pot:       0.00 MB

     Dynamical RAM for          nlocal pot:       2.07 MB

     Dynamical RAM for                qrad:       3.41 MB

     Dynamical RAM for          rho,v,vnew:       2.39 MB

     Dynamical RAM for               rhoin:       0.80 MB

     Dynamical RAM for            rho*nmix:       4.91 MB

     Dynamical RAM for           G-vectors:       1.30 MB

     Dynamical RAM for          h,s,v(r/c):       0.16 MB

     Dynamical RAM for          <psi|beta>:       0.02 MB

     Dynamical RAM for                 psi:       2.30 MB

     Dynamical RAM for                hpsi:       2.30 MB

     Dynamical RAM for                spsi:       2.30 MB

     Dynamical RAM for      wfcinit/wfcrot:       2.32 MB

     Dynamical RAM for           addusdens:      57.37 MB

     Estimated static dynamical RAM per process >      54.00 MB

     Estimated max dynamical RAM per process >     111.37 MB

     Check: negative core charge=   -0.000005

     Initial potential from superposition of free atoms

     starting charge   30.99935, renormalised to   31.00000
     Starting wfcs are   27 randomized atomic wfcs +    3 random wfcs
     Checking if some PAW data can be deallocated... 

     total cpu time spent up to now is        2.9 secs

     Self-consistent Calculation

     iteration #  1     ecut=    50.00 Ry     beta= 0.70
     Davidson diagonalization with overlap
     ethr =  1.00E-02,  avg # of iterations =  5.6

     total cpu time spent up to now is        9.5 secs

     total energy              =   -1144.28028290 Ry
     estimated scf accuracy    <       2.09488092 Ry

     iteration #  2     ecut=    50.00 Ry     beta= 0.70
     Davidson diagonalization with overlap
     ethr =  6.76E-03,  avg # of iterations =  2.1

     total cpu time spent up to now is       15.3 secs

     total energy              =   -1142.91506136 Ry
     estimated scf accuracy    <      55.94952741 Ry

     iteration #  3     ecut=    50.00 Ry     beta= 0.70
     Davidson diagonalization with overlap
     ethr =  6.76E-03,  avg # of iterations =  2.0

     total cpu time spent up to now is       20.7 secs

     total energy              =   -1145.76784138 Ry
     estimated scf accuracy    <       1.30209316 Ry

     iteration #  4     ecut=    50.00 Ry     beta= 0.70
     Davidson diagonalization with overlap
     ethr =  4.20E-03,  avg # of iterations =  1.0

     total cpu time spent up to now is       25.4 secs

     total energy              =   -1145.89831597 Ry
     estimated scf accuracy    <       0.47757375 Ry

     iteration #  5     ecut=    50.00 Ry     beta= 0.70
     Davidson diagonalization with overlap
     ethr =  1.54E-03,  avg # of iterations =  1.0

     total cpu time spent up to now is       30.2 secs

     total energy              =   -1145.90680338 Ry
     estimated scf accuracy    <       0.12653494 Ry

     iteration #  6     ecut=    50.00 Ry     beta= 0.70
     Davidson diagonalization with overlap
     ethr =  4.08E-04,  avg # of iterations =  1.2

     total cpu time spent up to now is       35.0 secs

     total energy              =   -1145.91152224 Ry
     estimated scf accuracy    <       0.00877245 Ry

     iteration #  7     ecut=    50.00 Ry     beta= 0.70
     Davidson diagonalization with overlap
     ethr =  2.83E-05,  avg # of iterations =  4.8

     total cpu time spent up to now is       40.5 secs

     total energy              =   -1145.91283325 Ry
     estimated scf accuracy    <       0.00617858 Ry

     iteration #  8     ecut=    50.00 Ry     beta= 0.70
     Davidson diagonalization with overlap
     ethr =  1.99E-05,  avg # of iterations =  1.3

     total cpu time spent up to now is       45.5 secs

     total energy              =   -1145.91332802 Ry
     estimated scf accuracy    <       0.00023351 Ry

     iteration #  9     ecut=    50.00 Ry     beta= 0.70
     Davidson diagonalization with overlap
     ethr =  7.53E-07,  avg # of iterations =  5.4

     total cpu time spent up to now is       52.3 secs

     total energy              =   -1145.91348176 Ry
     estimated scf accuracy    <       0.00012850 Ry

     iteration # 10     ecut=    50.00 Ry     beta= 0.70
     Davidson diagonalization with overlap
     ethr =  4.15E-07,  avg # of iterations =  1.3

     total cpu time spent up to now is       57.3 secs

     total energy              =   -1145.91345354 Ry
     estimated scf accuracy    <       0.00015725 Ry

     iteration # 11     ecut=    50.00 Ry     beta= 0.70
     Davidson diagonalization with overlap
     ethr =  4.15E-07,  avg # of iterations =  1.0

     total cpu time spent up to now is       62.1 secs

     total energy              =   -1145.91346274 Ry
     estimated scf accuracy    <       0.00001029 Ry

     iteration # 12     ecut=    50.00 Ry     beta= 0.70
     Davidson diagonalization with overlap
     ethr =  3.32E-08,  avg # of iterations =  1.4

     total cpu time spent up to now is       67.0 secs

     total energy              =   -1145.91346386 Ry
     estimated scf accuracy    <       0.00000027 Ry

     iteration # 13     ecut=    50.00 Ry     beta= 0.70
     Davidson diagonalization with overlap
     ethr =  8.60E-10,  avg # of iterations =  4.4

     total cpu time spent up to now is       73.4 secs

     End of self-consistent calculation

          k = 0.0000 0.0000 0.0000 (  2565 PWs)   bands (ev):

     0.7101   4.0433   4.0433   4.3136   4.3136   4.3136   5.1090   5.1090
     5.1090   5.9448   5.9448   6.1894   6.1894   6.1894   6.5459   6.5459
    13.2757  13.2757  13.2757  13.3075  15.1377  15.1754  15.1754  15.1754
    17.7936  17.7936  17.7936  20.7056  21.4382  21.4382

     occupation numbers 
     1.0000   1.0000   1.0000   1.0000   1.0000   1.0000   1.0000   1.0000
     1.0000   1.0000   1.0000   1.0000   1.0000   1.0000   1.0312   1.0312
    -0.0000  -0.0000  -0.0000  -0.0000  -0.0000  -0.0000  -0.0000  -0.0000
    -0.0000  -0.0000  -0.0000  -0.0000  -0.0000  -0.0000

          k =-0.1250 0.1250-0.1250 (  2544 PWs)   bands (ev):

     0.8995   4.0901   4.0901   4.2831   4.3542   4.3542   5.0903   5.0903
     5.1553   5.8701   5.8701   6.0447   6.1829   6.1829   6.5551   6.5551
    11.2646  13.1177  13.1177  13.8398  15.1537  15.2283  15.2283  16.1393
    17.7659  17.7659  18.3541  21.8605  22.1147  22.1147

     occupation numbers 
     1.0000   1.0000   1.0000   1.0000   1.0000   1.0000   1.0000   1.0000
     1.0000   1.0000   1.0000   1.0000   1.0000   1.0000   1.0350   1.0350
    -0.0000  -0.0000  -0.0000  -0.0000  -0.0000  -0.0000  -0.0000  -0.0000
    -0.0000  -0.0000  -0.0000  -0.0000  -0.0000  -0.0000

          k =-0.2500 0.2500-0.2500 (  2529 PWs)   bands (ev):

     1.4465   4.2210   4.2210   4.2426   4.4571   4.4571   5.0434   5.0434
     5.2287   5.6661   5.6662   5.6662   6.1915   6.1915   6.5574   6.5574
     9.1692  12.8270  12.8270  13.4722  15.0382  15.0382  15.4792  16.8479
    18.3049  18.3049  20.9034  23.6311  23.6311  24.2328

     occupation numbers 
     1.0000   1.0000   1.0000   1.0000   1.0000   1.0000   1.0000   1.0000
     1.0000   1.0000   1.0000   1.0000   1.0000   1.0000   1.0354   1.0354
    -0.0000  -0.0000  -0.0000  -0.0000  -0.0000  -0.0000  -0.0000  -0.0000
    -0.0000  -0.0000  -0.0000  -0.0000  -0.0000  -0.0000

          k =-0.3750 0.3750-0.3750 (  2506 PWs)   bands (ev):

     2.2519   4.2306   4.3952   4.3952   4.5712   4.5712   4.9892   4.9983
     4.9983   5.4043   5.4114   5.4114   6.2228   6.2228   6.5361   6.5361
     7.5920  12.5967  12.5967  13.2440  14.6969  14.6969  15.0967  18.7462
    19.5359  19.5359  23.4062  23.8623  23.8623  24.7892

     occupation numbers 
     1.0000   1.0000   1.0000   1.0000   1.0000   1.0000   1.0000   1.0000
     1.0000   1.0000   1.0000   1.0000   1.0000   1.0000   1.0250   1.0250
    -0.0000  -0.0000  -0.0000  -0.0000  -0.0000  -0.0000  -0.0000  -0.0000
    -0.0000  -0.0000  -0.0000  -0.0000  -0.0000  -0.0000

          k = 0.5000-0.5000 0.5000 (  2512 PWs)   bands (ev):

     2.8227   4.1556   4.4919   4.4919   4.6254   4.6254   4.6408   4.9902
     4.9902   5.2655   5.2655   5.3972   6.2435   6.2435   6.5188   6.5188
     6.9997  12.5100  12.5100  13.1685  14.5518  14.5518  14.9552  20.5934
    20.5934  20.6203  21.7796  22.5696  22.5696  26.5287

     occupation numbers 
     1.0000   1.0000   1.0000   1.0000   1.0000   1.0000   1.0000   1.0000
     1.0000   1.0000   1.0000   1.0000   1.0000   1.0000   1.0139   1.0139
    -0.0000  -0.0000  -0.0000  -0.0000  -0.0000  -0.0000  -0.0000  -0.0000
    -0.0000  -0.0000  -0.0000  -0.0000  -0.0000  -0.0000

          k = 0.0000 0.2500 0.0000 (  2541 PWs)   bands (ev):

     0.9615   4.0931   4.1068   4.2475   4.3786   4.3786   5.0370   5.1448
     5.1448   5.7694   5.9423   6.1312   6.1445   6.1445   6.4942   6.5905
    11.8254  12.2525  12.2525  13.4823  15.3083  15.7563  16.0226  16.0226
    17.6019  18.5662  18.5662  21.0904  21.4707  23.5877

     occupation numbers 
     1.0000   1.0000   1.0000   1.0000   1.0000   1.0000   1.0000   1.0000
     1.0000   1.0000   1.0000   1.0000   1.0000   1.0000   1.0044   0.9791
    -0.0000  -0.0000  -0.0000  -0.0000  -0.0000  -0.0000  -0.0000  -0.0000
    -0.0000  -0.0000  -0.0000  -0.0000  -0.0000  -0.0000

          k =-0.1250 0.3750-0.1250 (  2532 PWs)   bands (ev):

     1.3866   4.1329   4.2070   4.2226   4.4624   4.4767   4.9186   5.1568
     5.1955   5.6208   5.8240   5.9133   6.1578   6.1792   6.4587   6.6070
     9.9312  11.6558  12.1952  13.0699  15.1739  15.8165  16.3375  16.9380
    18.3704  19.2326  20.1201  22.2182  22.3141  25.5307

     occupation numbers 
     1.0000   1.0000   1.0000   1.0000   1.0000   1.0000   1.0000   1.0000
     1.0000   1.0000   1.0000   1.0000   1.0000   1.0000   1.0005   0.8793
    -0.0000  -0.0000  -0.0000  -0.0000  -0.0000  -0.0000  -0.0000  -0.0000
    -0.0000  -0.0000  -0.0000  -0.0000  -0.0000  -0.0000

          k =-0.2500 0.5000-0.2500 (  2502 PWs)   bands (ev):

     2.1095   4.1192   4.2902   4.3565   4.5695   4.6267   4.8195   5.1252
     5.1636   5.4587   5.5584   5.6275   6.2043   6.2064   6.4610   6.5969
     8.0899  11.4279  11.5814  13.1039  15.1826  16.0653  16.4761  16.9722
    19.7606  20.2426  22.6974  23.1232  23.9008  25.0786

     occupation numbers 
     1.0000   1.0000   1.0000   1.0000   1.0000   1.0000   1.0000   1.0000
     1.0000   1.0000   1.0000   1.0000   1.0000   1.0000   1.0005   0.9475
    -0.0000  -0.0000  -0.0000  -0.0000  -0.0000  -0.0000  -0.0000  -0.0000
    -0.0000  -0.0000  -0.0000  -0.0000  -0.0000  -0.0000

          k = 0.6250-0.3750 0.6250 (  2507 PWs)   bands (ev):

     2.8571   3.9901   4.3570   4.4705   4.6026   4.6736   4.9440   5.0052
     5.0688   5.2873   5.3428   5.4884   6.2100   6.2452   6.5222   6.5396
     7.0552  11.0047  11.6172  13.1528  14.9830  15.6222  16.7268  18.4508
    20.6969  20.8199  22.1308  22.6214  24.6121  25.5856

     occupation numbers 
     1.0000   1.0000   1.0000   1.0000   1.0000   1.0000   1.0000   1.0000
     1.0000   1.0000   1.0000   1.0000   1.0000   1.0000   1.0158   1.0273
    -0.0000  -0.0000  -0.0000  -0.0000  -0.0000  -0.0000  -0.0000  -0.0000
    -0.0000  -0.0000  -0.0000  -0.0000  -0.0000  -0.0000

          k = 0.5000-0.2500 0.5000 (  2507 PWs)   bands (ev):

     2.6472   4.0725   4.3819   4.4560   4.6239   4.6753   4.8470   4.9491
     5.1179   5.2930   5.3666   5.5591   6.1911   6.2654   6.4551   6.5941
     7.3013  10.6717  12.2080  13.3720  14.8548  15.2293  16.9400  18.7228
    19.1574  20.6185  22.7034  23.7272  24.2686  24.9033

     occupation numbers 
     1.0000   1.0000   1.0000   1.0000   1.0000   1.0000   1.0000   1.0000
     1.0000   1.0000   1.0000   1.0000   1.0000   1.0000   1.0004   0.9624
    -0.0000  -0.0000  -0.0000  -0.0000  -0.0000  -0.0000  -0.0000  -0.0000
    -0.0000  -0.0000  -0.0000  -0.0000  -0.0000  -0.0000

          k = 0.3750-0.1250 0.3750 (  2523 PWs)   bands (ev):

     1.8450   4.1623   4.2717   4.3136   4.5428   4.5864   4.9337   5.0361
     5.1699   5.5025   5.5124   5.7628   6.1838   6.2227   6.4311   6.6267
     8.6599  10.6793  13.1093  13.8168  14.8188  14.8628  16.5295  17.6385
    17.8097  20.5969  21.7388  22.8298  23.6767  25.4113

     occupation numbers 
     1.0000   1.0000   1.0000   1.0000   1.0000   1.0000   1.0000   1.0000
     1.0000   1.0000   1.0000   1.0000   1.0000   1.0000   1.0001   0.6868
    -0.0000  -0.0000  -0.0000  -0.0000  -0.0000  -0.0000  -0.0000  -0.0000
    -0.0000  -0.0000  -0.0000  -0.0000  -0.0000  -0.0000

          k = 0.2500 0.0000 0.2500 (  2541 PWs)   bands (ev):

     1.2075   4.1555   4.1651   4.2230   4.4126   4.4482   5.0084   5.1478
     5.1552   5.7130   5.7445   5.9724   6.1561   6.1886   6.4842   6.6099
    10.3775  11.2931  13.9635  14.3189  14.4364  14.6540  15.7058  17.1702
    17.3283  19.0493  19.6991  21.4020  23.5894  23.7728

     occupation numbers 
     1.0000   1.0000   1.0000   1.0000   1.0000   1.0000   1.0000   1.0000
     1.0000   1.0000   1.0000   1.0000   1.0000   1.0000   1.0025   0.8557
    -0.0000  -0.0000  -0.0000  -0.0000  -0.0000  -0.0000  -0.0000  -0.0000
    -0.0000  -0.0000  -0.0000  -0.0000  -0.0000  -0.0000

          k = 0.0000 0.5000 0.0000 (  2525 PWs)   bands (ev):

     1.6729   4.0221   4.2153   4.2740   4.5209   4.5209   4.7609   5.2263
     5.2263   5.6012   5.9359   6.0729   6.1251   6.1251   6.3549   6.6078
    10.7309  10.7309  10.8728  11.3052  14.5497  17.4205  17.4205  18.5384
    19.3857  20.3819  20.3819  21.5002  21.5720  26.5757

     occupation numbers 
     1.0000   1.0000   1.0000   1.0000   1.0000   1.0000   1.0000   1.0000
     1.0000   1.0000   1.0000   1.0000   1.0000   1.0000   1.0000   0.8727
    -0.0000  -0.0000  -0.0000  -0.0000  -0.0000  -0.0000  -0.0000  -0.0000
    -0.0000  -0.0000  -0.0000  -0.0000  -0.0000  -0.0000

          k =-0.1250 0.6250-0.1250 (  2511 PWs)   bands (ev):

     2.2556   3.9514   4.1426   4.3875   4.6050   4.6054   4.7475   5.2197
     5.2421   5.5667   5.7958   5.9361   6.1635   6.2170   6.3763   6.6181
     8.8199  10.0888  10.2508  11.8738  14.7646  17.3951  17.7500  19.3423
    20.6067  21.2271  21.9306  22.2210  22.9801  24.8725

     occupation numbers 
     1.0000   1.0000   1.0000   1.0000   1.0000   1.0000   1.0000   1.0000
     1.0000   1.0000   1.0000   1.0000   1.0000   1.0000   1.0000   0.7800
    -0.0000  -0.0000  -0.0000  -0.0000  -0.0000  -0.0000  -0.0000  -0.0000
    -0.0000  -0.0000  -0.0000  -0.0000  -0.0000  -0.0000

          k = 0.7500-0.2500 0.7500 (  2514 PWs)   bands (ev):

     2.9728   3.8334   4.1115   4.4696   4.5485   4.7356   4.9201   5.1456
     5.3440   5.4902   5.4995   5.8017   6.1238   6.3229   6.5344   6.6137
     7.2945   9.2926  10.3370  12.4104  15.9548  16.9842  17.4448  19.2480
    20.9438  21.1239  22.5657  22.7952  24.3962  25.6088

     occupation numbers 
     1.0000   1.0000   1.0000   1.0000   1.0000   1.0000   1.0000   1.0000
     1.0000   1.0000   1.0000   1.0000   1.0000   1.0000   1.0238   0.8227
    -0.0000  -0.0000  -0.0000  -0.0000  -0.0000  -0.0000  -0.0000  -0.0000
    -0.0000  -0.0000  -0.0000  -0.0000  -0.0000  -0.0000

          k = 0.6250-0.1250 0.6250 (  2526 PWs)   bands (ev):

     3.1553   3.8459   4.2312   4.4381   4.4860   4.8229   4.9874   5.0937
     5.1897   5.3336   5.4823   5.7378   6.1232   6.2896   6.5327   6.6316
     7.1933   8.7942  10.9655  12.7768  16.3497  16.9809  17.9665  18.6007
    19.1049  19.9781  23.1853  24.4526  24.9074  25.6078

     occupation numbers 
     1.0000   1.0000   1.0000   1.0000   1.0000   1.0000   1.0000   1.0000
     1.0000   1.0000   1.0000   1.0000   1.0000   1.0000   1.0226   0.6297
    -0.0000  -0.0000  -0.0000  -0.0000  -0.0000  -0.0000  -0.0000  -0.0000
    -0.0000  -0.0000  -0.0000  -0.0000  -0.0000  -0.0000

          k = 0.5000 0.0000 0.5000 (  2517 PWs)   bands (ev):

     2.5024   4.0613   4.2888   4.4299   4.6120   4.7266   4.8992   4.9173
     5.1781   5.3189   5.4556   5.7977   6.1520   6.2967   6.3674   6.6559
     8.2594   8.9188  11.9810  13.2327  15.9350  16.1315  16.8265  17.9083
    19.4608  20.5215  21.8682  23.7331  24.1426  25.9994

     occupation numbers 
     1.0000   1.0000   1.0000   1.0000   1.0000   1.0000   1.0000   1.0000
     1.0000   1.0000   1.0000   1.0000   1.0000   1.0000   1.0000   0.3335
    -0.0000  -0.0000  -0.0000  -0.0000  -0.0000  -0.0000  -0.0000  -0.0000
    -0.0000  -0.0000  -0.0000  -0.0000  -0.0000  -0.0000

          k = 0.0000 0.7500 0.0000 (  2506 PWs)   bands (ev):

     2.6424   3.7888   4.0348   4.4707   4.6384   4.6384   4.7833   5.2453
     5.2453   5.6304   5.9299   5.9941   6.1859   6.3610   6.3610   6.6577
     8.6824   9.4473   9.4473  10.8413  14.1452  19.1472  19.1472  20.9783
    21.7262  21.7827  22.2942  22.2942  22.6629  24.8247

     occupation numbers 
     1.0000   1.0000   1.0000   1.0000   1.0000   1.0000   1.0000   1.0000
     1.0000   1.0000   1.0000   1.0000   1.0000   1.0000   1.0000   0.3119
    -0.0000  -0.0000  -0.0000  -0.0000  -0.0000  -0.0000  -0.0000  -0.0000
    -0.0000  -0.0000  -0.0000  -0.0000  -0.0000  -0.0000

          k = 0.8750-0.1250 0.8750 (  2510 PWs)   bands (ev):

     3.1362   3.6704   4.0000   4.5163   4.5945   4.7258   4.8863   5.1907
     5.3768   5.6147   5.8479   5.9309   6.0411   6.5410   6.5672   6.7829
     7.7099   8.2938   9.3024  11.5178  14.5066  19.0569  19.3952  20.9841
    21.2137  22.3065  22.8062  22.9734  23.8919  24.7274

     occupation numbers 
     1.0000   1.0000   1.0000   1.0000   1.0000   1.0000   1.0000   1.0000
     1.0000   1.0000   1.0000   1.0000   1.0000   1.0282   1.0327  -0.0064
    -0.0000  -0.0000  -0.0000  -0.0000  -0.0000  -0.0000  -0.0000  -0.0000
    -0.0000  -0.0000  -0.0000  -0.0000  -0.0000  -0.0000

          k = 0.7500 0.0000 0.7500 (  2522 PWs)   bands (ev):

     3.5193   3.5784   4.0523   4.4226   4.5033   4.8549   4.9459   5.0957
     5.5057   5.5100   5.6812   5.8378   6.0482   6.6156   6.6403   6.7401
     7.2998   7.5485   9.8976  12.2373  15.8516  18.2961  18.7893  19.0839
    19.5159  22.3215  22.7754  24.1549  24.5108  26.0023

     occupation numbers 
     1.0000   1.0000   1.0000   1.0000   1.0000   1.0000   1.0000   1.0000
     1.0000   1.0000   1.0000   1.0000   1.0000   0.8048   0.5236  -0.0303
    -0.0000  -0.0000  -0.0000  -0.0000  -0.0000  -0.0000  -0.0000  -0.0000
    -0.0000  -0.0000  -0.0000  -0.0000  -0.0000  -0.0000

          k = 0.0000-1.0000 0.0000 (  2498 PWs)   bands (ev):

     3.2348   3.5479   4.0024   4.5657   4.6813   4.6813   4.9583   5.2240
     5.2240   5.6710   5.9277   5.9280   6.1021   6.6083   6.6083   7.0875
     7.1502   8.8587   8.8587  10.7610  14.0320  20.5539  20.5539  21.8183
    21.8623  22.2161  22.2161  22.4831  24.5037  24.7523

     occupation numbers 
     1.0000   1.0000   1.0000   1.0000   1.0000   1.0000   1.0000   1.0000
     1.0000   1.0000   1.0000   1.0000   1.0000   0.8693   0.8693  -0.0000
    -0.0000  -0.0000  -0.0000  -0.0000  -0.0000  -0.0000  -0.0000  -0.0000
    -0.0000  -0.0000  -0.0000  -0.0000  -0.0000  -0.0000

          k =-0.2500 0.5000 0.0000 (  2528 PWs)   bands (ev):

     1.8982   4.0770   4.2168   4.3383   4.5529   4.5982   4.7855   5.1602
     5.1980   5.5470   5.6423   5.8900   6.1653   6.2203   6.3797   6.6290
     9.2329   9.9625  11.6774  13.2107  15.3132  15.4884  17.1231  18.1075
    18.9160  20.8354  21.6997  21.9431  23.2112  24.9595

     occupation numbers 
     1.0000   1.0000   1.0000   1.0000   1.0000   1.0000   1.0000   1.0000
     1.0000   1.0000   1.0000   1.0000   1.0000   1.0000   1.0000   0.6604
    -0.0000  -0.0000  -0.0000  -0.0000  -0.0000  -0.0000  -0.0000  -0.0000
    -0.0000  -0.0000  -0.0000  -0.0000  -0.0000  -0.0000

          k = 0.6250-0.3750 0.8750 (  2511 PWs)   bands (ev):

     2.6316   3.9996   4.1906   4.4653   4.6235   4.6575   4.8807   5.0760
     5.2294   5.3755   5.4646   5.7854   6.1374   6.2968   6.4246   6.6315
     7.7692   9.5719  10.8015  13.8111  14.8428  16.3317  17.5262  18.6154
    19.8162  20.6789  22.6338  23.1969  24.1337  25.2483

     occupation numbers 
     1.0000   1.0000   1.0000   1.0000   1.0000   1.0000   1.0000   1.0000
     1.0000   1.0000   1.0000   1.0000   1.0000   1.0000   1.0000   0.6305
    -0.0000  -0.0000  -0.0000  -0.0000  -0.0000  -0.0000  -0.0000  -0.0000
    -0.0000  -0.0000  -0.0000  -0.0000  -0.0000  -0.0000

          k = 0.5000-0.2500 0.7500 (  2518 PWs)   bands (ev):

     3.1535   3.8097   4.2233   4.4466   4.6425   4.7057   5.0045   5.0419
     5.1847   5.3136   5.5011   5.6542   6.1192   6.3544   6.5141   6.6066
     6.9723   9.6458  10.3657  14.0078  14.5440  17.4523  17.8911  18.5411
    18.9114  21.1982  22.2100  24.6415  24.9247  25.1958

     occupation numbers 
     1.0000   1.0000   1.0000   1.0000   1.0000   1.0000   1.0000   1.0000
     1.0000   1.0000   1.0000   1.0000   1.0000   1.0000   1.0114   0.8825
    -0.0000  -0.0000  -0.0000  -0.0000  -0.0000  -0.0000  -0.0000  -0.0000
    -0.0000  -0.0000  -0.0000  -0.0000  -0.0000  -0.0000

          k = 0.7500-0.2500 1.0000 (  2502 PWs)   bands (ev):

     2.8245   3.8517   4.0331   4.4682   4.5871   4.7089   4.8502   5.1916
     5.3192   5.5536   5.6660   5.9392   6.0679   6.3975   6.4641   6.6590
     8.2787   8.7945   9.3820  12.5363  14.9317  16.9036  19.3465  20.2157
    20.9794  21.2566  22.0228  23.2513  23.7817  24.9735

     occupation numbers 
     1.0000   1.0000   1.0000   1.0000   1.0000   1.0000   1.0000   1.0000
     1.0000   1.0000   1.0000   1.0000   1.0000   1.0000   1.0007   0.2981
    -0.0000  -0.0000  -0.0000  -0.0000  -0.0000  -0.0000  -0.0000  -0.0000
    -0.0000  -0.0000  -0.0000  -0.0000  -0.0000  -0.0000

          k = 0.6250-0.1250 0.8750 (  2508 PWs)   bands (ev):

     3.3823   3.7094   4.0453   4.3811   4.6094   4.8330   4.9375   5.1170
     5.3323   5.4933   5.6247   5.8910   6.0187   6.5682   6.6341   6.7860
     7.1584   8.2784   9.1531  13.4096  15.9786  16.3161  18.4217  19.6701
    21.0094  21.7732  22.3823  23.8288  24.4829  25.0654

     occupation numbers 
     1.0000   1.0000   1.0000   1.0000   1.0000   1.0000   1.0000   1.0000
     1.0000   1.0000   1.0000   1.0000   1.0000   1.0320   0.6003  -0.0054
    -0.0000  -0.0000  -0.0000  -0.0000  -0.0000  -0.0000  -0.0000  -0.0000
    -0.0000  -0.0000  -0.0000  -0.0000  -0.0000  -0.0000

          k = 0.5000 0.0000 0.7500 (  2517 PWs)   bands (ev):

     3.2267   3.8361   4.1092   4.3751   4.6555   4.8025   4.9663   5.0604
     5.1850   5.4501   5.5441   5.8635   6.0506   6.4195   6.5431   6.6690
     7.6560   8.0608   9.8175  14.0450  15.3168  16.8024  18.0207  19.2866
    19.7921  21.1769  22.2607  24.4855  24.5911  26.0072

     occupation numbers 
     1.0000   1.0000   1.0000   1.0000   1.0000   1.0000   1.0000   1.0000
     1.0000   1.0000   1.0000   1.0000   1.0000   1.0000   1.0295   0.1933
    -0.0000  -0.0000  -0.0000  -0.0000  -0.0000  -0.0000  -0.0000  -0.0000
    -0.0000  -0.0000  -0.0000  -0.0000  -0.0000  -0.0000

          k =-0.2500-1.0000 0.0000 (  2504 PWs)   bands (ev):

     3.3985   3.6083   3.9952   4.4750   4.5542   4.8072   4.8952   5.1785
     5.5245   5.6034   5.7068   5.9339   5.9586   6.6167   6.6655   7.1508
     7.1852   8.1984   8.4788  12.3273  14.8043  18.2216  19.1472  20.9292
    21.9243  22.0299  23.2713  23.4105  23.7319  24.3482

     occupation numbers 
     1.0000   1.0000   1.0000   1.0000   1.0000   1.0000   1.0000   1.0000
     1.0000   1.0000   1.0000   1.0000   1.0000   0.7938   0.2281  -0.0000
    -0.0000  -0.0000  -0.0000  -0.0000  -0.0000  -0.0000  -0.0000  -0.0000
    -0.0000  -0.0000  -0.0000  -0.0000  -0.0000  -0.0000

          k =-0.5000-1.0000 0.0000 (  2520 PWs)   bands (ev):

     3.5965   3.6908   3.9843   4.2798   4.7802   4.8318   4.9175   5.1392
     5.1522   5.5093   5.7381   5.9395   5.9569   6.6216   6.7172   7.1520
     7.4167   7.8856   7.9919  15.0619  15.1063  16.6212  16.7235  21.5902
    21.7908  22.0596  23.0580  23.1109  23.2288  24.4360

     occupation numbers 
     1.0000   1.0000   1.0000   1.0000   1.0000   1.0000   1.0000   1.0000
     1.0000   1.0000   1.0000   1.0000   1.0000   0.7431  -0.0328  -0.0000
    -0.0000  -0.0000  -0.0000  -0.0000  -0.0000  -0.0000  -0.0000  -0.0000
    -0.0000  -0.0000  -0.0000  -0.0000  -0.0000  -0.0000

     the Fermi energy is     6.6422 ev

!    total energy              =   -1145.91346401 Ry

     total all-electron energy =    -43178.872843 Ry
     estimated scf accuracy    <       0.00000006 Ry
     smearing contrib. (-TS)   =      -0.00049461 Ry
     internal energy E=F+TS    =   -1145.91296940 Ry

     The total energy is F=E-TS. E is the sum of the following terms:
     one-electron contribution =     -84.05062793 Ry
     hartree contribution      =      79.54731289 Ry
     xc contribution           =    -109.75473692 Ry
     ewald contribution        =    -172.12563598 Ry
     one-center paw contrib.   =    -859.52928146 Ry
      -> PAW hartree energy AE =     217.79432151 Ry
      -> PAW hartree energy PS =    -216.64672919 Ry
      -> PAW xc energy AE      =    -969.60862687 Ry
      -> PAW xc energy PS      =     108.93175309 Ry
      -> total E_H with PAW    =      80.69490521 Ry
      -> total E_XC with PAW   =    -970.43161070 Ry

     convergence has been achieved in  13 iterations

     Writing output data file ././CuPtNi.save/

     init_run     :      3.73s CPU      2.67s WALL (       1 calls)
     electrons    :    117.95s CPU     70.60s WALL (       1 calls)

     Called by init_run:
     wfcinit      :      2.49s CPU      1.51s WALL (       1 calls)
     wfcinit:atom :      0.05s CPU      0.02s WALL (      29 calls)
     wfcinit:wfcr :      2.31s CPU      1.42s WALL (      29 calls)
     potinit      :      0.35s CPU      0.36s WALL (       1 calls)
     hinit0       :      0.71s CPU      0.65s WALL (       1 calls)

     Called by electrons:
     c_bands      :     87.74s CPU     50.50s WALL (      13 calls)
     sum_band     :     22.87s CPU     13.64s WALL (      13 calls)
     v_of_rho     :      0.69s CPU      0.44s WALL (      14 calls)
     v_h          :      0.05s CPU      0.03s WALL (      14 calls)
     v_xc         :      0.64s CPU      0.40s WALL (      14 calls)
     newd         :      2.03s CPU      1.60s WALL (      14 calls)
     PAW_pot      :      4.97s CPU      4.78s WALL (      14 calls)
     mix_rho      :      0.10s CPU      0.07s WALL (      13 calls)

     Called by c_bands:
     init_us_2    :      1.95s CPU      0.96s WALL (     783 calls)
     cegterg      :     80.66s CPU     46.57s WALL (     377 calls)

     Called by sum_band:
     sum_band:wei :      0.04s CPU      0.01s WALL (      13 calls)
     sum_band:loo :     19.18s CPU     11.76s WALL (      13 calls)
     sum_band:buf :      0.10s CPU      0.05s WALL (     377 calls)
     sum_band:ini :      0.85s CPU      0.47s WALL (     377 calls)
     sum_band:cal :      0.40s CPU      0.25s WALL (     377 calls)
     sum_band:bec :      0.01s CPU      0.01s WALL (     377 calls)
     addusdens    :      3.54s CPU      1.80s WALL (      13 calls)
     addusd:skk   :      0.01s CPU      0.00s WALL (      39 calls)
     addusd:dgemm :      1.94s CPU      0.71s WALL (      39 calls)
     addusd:qvan2 :      1.36s CPU      0.84s WALL (      39 calls)

     Called by *egterg:
     cdiaghg      :      3.11s CPU      1.21s WALL (    1326 calls)
     cegterg:over :      1.93s CPU      0.72s WALL (     949 calls)
     cegterg:upda :      1.48s CPU      0.53s WALL (     949 calls)
     cegterg:last :      2.04s CPU      0.73s WALL (     636 calls)
     h_psi        :     70.95s CPU     43.43s WALL (    1355 calls)
     s_psi        :      1.30s CPU      0.53s WALL (    1355 calls)
     g_psi        :      0.67s CPU      0.23s WALL (     949 calls)

     Called by h_psi:
     h_psi:calbec :      1.29s CPU      0.94s WALL (    1355 calls)
     vloc_psi     :     67.78s CPU     41.62s WALL (    1355 calls)
     add_vuspsi   :      1.37s CPU      0.64s WALL (    1355 calls)

     General routines
     calbec       :      1.68s CPU      1.18s WALL (    1732 calls)
     fft          :      0.35s CPU      0.23s WALL (     154 calls)
     ffts         :      0.02s CPU      0.01s WALL (      13 calls)
     fftw         :     75.15s CPU     46.25s WALL (   65832 calls)

     Parallel routines

     PAW routines
     PAW_pot      :      4.97s CPU      4.78s WALL (      14 calls)
     PAW_symme    :      0.01s CPU      0.01s WALL (      27 calls)

     PWSCF        :   2m 1.93s CPU   1m13.57s WALL


   This run was terminated on:  13:11: 0  22May2024            

=------------------------------------------------------------------------------=
   JOB DONE.
=------------------------------------------------------------------------------=
