
     Program PWSCF v.6.7MaX starts on 22May2024 at 12:59:25 

     This program is part of the open-source Quantum ESPRESSO suite
     for quantum simulation of materials; please cite
         "P. Giannozzi et al., J. Phys.:Condens. Matter 21 395502 (2009);
         "P. Giannozzi et al., J. Phys.:Condens. Matter 29 465901 (2017);
          URL http://www.quantum-espresso.org", 
     in publications or presentations arising from this work. More details at
     http://www.quantum-espresso.org/quote

     Parallel version (MPI), running on     1 processors

     MPI processes distributed on     1 nodes
     Waiting for input...
     Reading input from standard input

     Current dimensions of program PWSCF are:
     Max number of different atomic species (ntypx) = 10
     Max number of k-points (npk) =  40000
     Max angular momentum in pseudopotentials (lmaxx) =  3
     file Cu.UPF: wavefunction(s)  4S 3D renormalized
     file Pt.UPF: wavefunction(s)  6S 5D renormalized
     file Ni.UPF: wavefunction(s)  4S 3D renormalized

     Subspace diagonalization in iterative solution of the eigenvalue problem:
     a serial algorithm will be used


     G-vector sticks info
     --------------------
     sticks:   dense  smooth     PW     G-vecs:    dense   smooth      PW
     Sum         805     805    253                15065    15065    2637



     bravais-lattice index     =            2
     lattice parameter (alat)  =      10.8000  a.u.
     unit-cell volume          =     314.9280 (a.u.)^3
     number of atoms/cell      =            3
     number of atomic types    =            3
     number of electrons       =        31.00
     number of Kohn-Sham states=           30
     kinetic-energy cutoff     =      50.0000  Ry
     charge density cutoff     =     200.0000  Ry
     scf convergence threshold =      1.0E-07
     mixing beta               =       0.7000
     number of iterations used =            8  plain     mixing
     Exchange-correlation= SLA  PW   PBX  PBC
                           (   1   4   3   4   0   0   0)

     celldm(1)=  10.800000  celldm(2)=   0.000000  celldm(3)=   0.000000
     celldm(4)=   0.000000  celldm(5)=   0.000000  celldm(6)=   0.000000

     crystal axes: (cart. coord. in units of alat)
               a(1) = (  -0.500000   0.000000   0.500000 )  
               a(2) = (   0.000000   0.500000   0.500000 )  
               a(3) = (  -0.500000   0.500000   0.000000 )  

     reciprocal axes: (cart. coord. in units 2 pi/alat)
               b(1) = ( -1.000000 -1.000000  1.000000 )  
               b(2) = (  1.000000  1.000000  1.000000 )  
               b(3) = ( -1.000000  1.000000 -1.000000 )  


     PseudoPot. # 1 for Cu read from file:
     ././Cu.UPF
     MD5 check sum: cfffd1f38ee05704b3e17f46f1730a6f
     Pseudo is Projector augmented-wave + core cor, Zval = 11.0
     Generated using &quot;atomic&quot; code by A. Dal Corso  v.6.3
     Shape of augmentation charge: PSQ
     Using radial grid of 1199 points,  6 beta functions with: 
                l(1) =   0
                l(2) =   0
                l(3) =   1
                l(4) =   1
                l(5) =   2
                l(6) =   2
     Q(r) pseudized with 0 coefficients 


     PseudoPot. # 2 for Pt read from file:
     ././Pt.UPF
     MD5 check sum: c5224e9cd7a5e36e81f2def9f50bb494
     Pseudo is Projector augmented-wave + core cor, Zval = 10.0
     Generated using &quot;atomic&quot; code by A. Dal Corso  v.6.3
     Shape of augmentation charge: PSQ
     Using radial grid of 1277 points,  6 beta functions with: 
                l(1) =   0
                l(2) =   0
                l(3) =   1
                l(4) =   1
                l(5) =   2
                l(6) =   2
     Q(r) pseudized with 0 coefficients 


     PseudoPot. # 3 for Ni read from file:
     ././Ni.UPF
     MD5 check sum: 5bc40517020091042a126ac2b4ecef1e
     Pseudo is Projector augmented-wave + core cor, Zval = 10.0
     Generated using "atomic" code by A. Dal Corso  v.5.0.2 svn rev. 9415
     Shape of augmentation charge: PSQ
     Using radial grid of 1195 points,  6 beta functions with: 
                l(1) =   0
                l(2) =   0
                l(3) =   1
                l(4) =   1
                l(5) =   2
                l(6) =   2
     Q(r) pseudized with 0 coefficients 


     atomic species   valence    mass     pseudopotential
        Cu            11.00    63.54600     Cu( 1.00)
        Pt            10.00   195.08000     Pt( 1.00)
        Ni            10.00    58.69000     Ni( 1.00)

     24 Sym. Ops. (no inversion) found


                                    s                        frac. trans.

      isym =  1     identity                                     

 cryst.   s( 1) = (     1          0          0      )
                  (     0          1          0      )
                  (     0          0          1      )

 cart.    s( 1) = (  1.0000000  0.0000000  0.0000000 )
                  (  0.0000000  1.0000000  0.0000000 )
                  (  0.0000000  0.0000000  1.0000000 )


      isym =  2     180 deg rotation - cart. axis [0,0,1]        

 cryst.   s( 2) = (     0          1         -1      )
                  (     1          0         -1      )
                  (     0          0         -1      )

 cart.    s( 2) = ( -1.0000000  0.0000000  0.0000000 )
                  (  0.0000000 -1.0000000  0.0000000 )
                  (  0.0000000  0.0000000  1.0000000 )


      isym =  3     180 deg rotation - cart. axis [0,1,0]        

 cryst.   s( 3) = (    -1          0          0      )
                  (    -1          0          1      )
                  (    -1          1          0      )

 cart.    s( 3) = ( -1.0000000  0.0000000  0.0000000 )
                  (  0.0000000  1.0000000  0.0000000 )
                  (  0.0000000  0.0000000 -1.0000000 )


      isym =  4     180 deg rotation - cart. axis [1,0,0]        

 cryst.   s( 4) = (     0         -1          1      )
                  (     0         -1          0      )
                  (     1         -1          0      )

 cart.    s( 4) = (  1.0000000  0.0000000  0.0000000 )
                  (  0.0000000 -1.0000000  0.0000000 )
                  (  0.0000000  0.0000000 -1.0000000 )


      isym =  5     120 deg rotation - cart. axis [-1,-1,-1]     

 cryst.   s( 5) = (    -1          0          1      )
                  (    -1          1          0      )
                  (    -1          0          0      )

 cart.    s( 5) = (  0.0000000  1.0000000  0.0000000 )
                  (  0.0000000  0.0000000  1.0000000 )
                  (  1.0000000  0.0000000  0.0000000 )


      isym =  6     120 deg rotation - cart. axis [-1,1,1]       

 cryst.   s( 6) = (     0          1          0      )
                  (     0          0          1      )
                  (     1          0          0      )

 cart.    s( 6) = (  0.0000000 -1.0000000  0.0000000 )
                  (  0.0000000  0.0000000  1.0000000 )
                  ( -1.0000000  0.0000000  0.0000000 )


      isym =  7     120 deg rotation - cart. axis [1,1,-1]       

 cryst.   s( 7) = (     1          0         -1      )
                  (     0          0         -1      )
                  (     0          1         -1      )

 cart.    s( 7) = (  0.0000000  1.0000000  0.0000000 )
                  (  0.0000000  0.0000000 -1.0000000 )
                  ( -1.0000000  0.0000000  0.0000000 )


      isym =  8     120 deg rotation - cart. axis [1,-1,1]       

 cryst.   s( 8) = (     0         -1          0      )
                  (     1         -1          0      )
                  (     0         -1          1      )

 cart.    s( 8) = (  0.0000000 -1.0000000  0.0000000 )
                  (  0.0000000  0.0000000 -1.0000000 )
                  (  1.0000000  0.0000000  0.0000000 )


      isym =  9     120 deg rotation - cart. axis [1,1,1]        

 cryst.   s( 9) = (     0          0         -1      )
                  (     0          1         -1      )
                  (     1          0         -1      )

 cart.    s( 9) = (  0.0000000  0.0000000  1.0000000 )
                  (  1.0000000  0.0000000  0.0000000 )
                  (  0.0000000  1.0000000  0.0000000 )


      isym = 10     120 deg rotation - cart. axis [-1,1,-1]      

 cryst.   s(10) = (    -1          1          0      )
                  (    -1          0          0      )
                  (    -1          0          1      )

 cart.    s(10) = (  0.0000000  0.0000000  1.0000000 )
                  ( -1.0000000  0.0000000  0.0000000 )
                  (  0.0000000 -1.0000000  0.0000000 )


      isym = 11     120 deg rotation - cart. axis [1,-1,-1]      

 cryst.   s(11) = (     0          0          1      )
                  (     1          0          0      )
                  (     0          1          0      )

 cart.    s(11) = (  0.0000000  0.0000000 -1.0000000 )
                  ( -1.0000000  0.0000000  0.0000000 )
                  (  0.0000000  1.0000000  0.0000000 )


      isym = 12     120 deg rotation - cart. axis [-1,-1,1]      

 cryst.   s(12) = (     1         -1          0      )
                  (     0         -1          1      )
                  (     0         -1          0      )

 cart.    s(12) = (  0.0000000  0.0000000 -1.0000000 )
                  (  1.0000000  0.0000000  0.0000000 )
                  (  0.0000000 -1.0000000  0.0000000 )


      isym = 13     inv. 180 deg rotation - cart. axis [1,1,0]   

 cryst.   s(13) = (     0          1          0      )
                  (     1          0          0      )
                  (     0          0          1      )

 cart.    s(13) = (  0.0000000 -1.0000000  0.0000000 )
                  ( -1.0000000  0.0000000  0.0000000 )
                  (  0.0000000  0.0000000  1.0000000 )


      isym = 14     inv. 180 deg rotation - cart. axis [1,-1,0]  

 cryst.   s(14) = (     1          0         -1      )
                  (     0          1         -1      )
                  (     0          0         -1      )

 cart.    s(14) = (  0.0000000  1.0000000  0.0000000 )
                  (  1.0000000  0.0000000  0.0000000 )
                  (  0.0000000  0.0000000  1.0000000 )


      isym = 15     inv.  90 deg rotation - cart. axis [0,0,-1]  

 cryst.   s(15) = (     0         -1          0      )
                  (     0         -1          1      )
                  (     1         -1          0      )

 cart.    s(15) = (  0.0000000 -1.0000000  0.0000000 )
                  (  1.0000000  0.0000000  0.0000000 )
                  (  0.0000000  0.0000000 -1.0000000 )


      isym = 16     inv.  90 deg rotation - cart. axis [0,0,1]   

 cryst.   s(16) = (    -1          0          1      )
                  (    -1          0          0      )
                  (    -1          1          0      )

 cart.    s(16) = (  0.0000000  1.0000000  0.0000000 )
                  ( -1.0000000  0.0000000  0.0000000 )
                  (  0.0000000  0.0000000 -1.0000000 )


      isym = 17     inv. 180 deg rotation - cart. axis [1,0,1]   

 cryst.   s(17) = (     1          0          0      )
                  (     0          0          1      )
                  (     0          1          0      )

 cart.    s(17) = (  0.0000000  0.0000000 -1.0000000 )
                  (  0.0000000  1.0000000  0.0000000 )
                  ( -1.0000000  0.0000000  0.0000000 )


      isym = 18     inv. 180 deg rotation - cart. axis [-1,0,1]  

 cryst.   s(18) = (    -1          0          0      )
                  (    -1          1          0      )
                  (    -1          0          1      )

 cart.    s(18) = (  0.0000000  0.0000000  1.0000000 )
                  (  0.0000000  1.0000000  0.0000000 )
                  (  1.0000000  0.0000000  0.0000000 )


      isym = 19     inv.  90 deg rotation - cart. axis [0,1,0]   

 cryst.   s(19) = (     0         -1          1      )
                  (     1         -1          0      )
                  (     0         -1          0      )

 cart.    s(19) = (  0.0000000  0.0000000 -1.0000000 )
                  (  0.0000000 -1.0000000  0.0000000 )
                  (  1.0000000  0.0000000  0.0000000 )


      isym = 20     inv.  90 deg rotation - cart. axis [0,-1,0]  

 cryst.   s(20) = (     0          1         -1      )
                  (     0          0         -1      )
                  (     1          0         -1      )

 cart.    s(20) = (  0.0000000  0.0000000  1.0000000 )
                  (  0.0000000 -1.0000000  0.0000000 )
                  ( -1.0000000  0.0000000  0.0000000 )


      isym = 21     inv. 180 deg rotation - cart. axis [0,1,1]   

 cryst.   s(21) = (     1         -1          0      )
                  (     0         -1          0      )
                  (     0         -1          1      )

 cart.    s(21) = (  1.0000000  0.0000000  0.0000000 )
                  (  0.0000000  0.0000000 -1.0000000 )
                  (  0.0000000 -1.0000000  0.0000000 )


      isym = 22     inv. 180 deg rotation - cart. axis [0,1,-1]  

 cryst.   s(22) = (     0          0          1      )
                  (     0          1          0      )
                  (     1          0          0      )

 cart.    s(22) = (  1.0000000  0.0000000  0.0000000 )
                  (  0.0000000  0.0000000  1.0000000 )
                  (  0.0000000  1.0000000  0.0000000 )


      isym = 23     inv.  90 deg rotation - cart. axis [-1,0,0]  

 cryst.   s(23) = (     0          0         -1      )
                  (     1          0         -1      )
                  (     0          1         -1      )

 cart.    s(23) = ( -1.0000000  0.0000000  0.0000000 )
                  (  0.0000000  0.0000000 -1.0000000 )
                  (  0.0000000  1.0000000  0.0000000 )


      isym = 24     inv.  90 deg rotation - cart. axis [1,0,0]   

 cryst.   s(24) = (    -1          1          0      )
                  (    -1          0          1      )
                  (    -1          0          0      )

 cart.    s(24) = ( -1.0000000  0.0000000  0.0000000 )
                  (  0.0000000  0.0000000  1.0000000 )
                  (  0.0000000 -1.0000000  0.0000000 )


     point group T_d (-43m) 
     there are  5 classes
     the character table:

       E     8C3   3C2   6S4   6s_d 
A_1    1.00  1.00  1.00  1.00  1.00
A_2    1.00  1.00  1.00 -1.00 -1.00
E      2.00 -1.00  2.00  0.00  0.00
T_1    3.00  0.00 -1.00  1.00 -1.00
T_2    3.00  0.00 -1.00 -1.00  1.00

     the symmetry operations in each class and the name of the first element:

     E        1
          identity                                               
     8C3      5    7    8    6   12    9   10   11
          120 deg rotation - cart. axis [-1,-1,-1]               
     3C2      2    3    4
          180 deg rotation - cart. axis [0,0,1]                  
     6S4     15   16   20   19   23   24
          inv.  90 deg rotation - cart. axis [0,0,-1]            
     6s_d    13   14   17   18   21   22
          inv. 180 deg rotation - cart. axis [1,1,0]             

   Cartesian axes

     site n.     atom                  positions (alat units)
         1           Cu  tau(   1) = (   0.0000000   0.0000000   0.0000000  )
         2           Pt  tau(   2) = (   0.5000000   0.5000000   0.5000000  )
         3           Ni  tau(   3) = (   0.2500000   0.2500000   0.2500000  )

   Crystallographic axes

     site n.     atom                  positions (cryst. coord.)
         1           Cu  tau(   1) = (  0.0000000  0.0000000  0.0000000  )
         2           Pt  tau(   2) = ( -0.5000000  1.5000000 -0.5000000  )
         3           Ni  tau(   3) = ( -0.2500000  0.7500000 -0.2500000  )

     number of k points=    29  Methfessel-Paxton smearing, width (Ry)=  0.0050
                       cart. coord. in units 2pi/alat
        k(    1) = (   0.0000000   0.0000000   0.0000000), wk =   0.0039062
        k(    2) = (  -0.1250000   0.1250000  -0.1250000), wk =   0.0312500
        k(    3) = (  -0.2500000   0.2500000  -0.2500000), wk =   0.0312500
        k(    4) = (  -0.3750000   0.3750000  -0.3750000), wk =   0.0312500
        k(    5) = (   0.5000000  -0.5000000   0.5000000), wk =   0.0156250
        k(    6) = (   0.0000000   0.2500000   0.0000000), wk =   0.0234375
        k(    7) = (  -0.1250000   0.3750000  -0.1250000), wk =   0.0937500
        k(    8) = (  -0.2500000   0.5000000  -0.2500000), wk =   0.0937500
        k(    9) = (   0.6250000  -0.3750000   0.6250000), wk =   0.0937500
        k(   10) = (   0.5000000  -0.2500000   0.5000000), wk =   0.0937500
        k(   11) = (   0.3750000  -0.1250000   0.3750000), wk =   0.0937500
        k(   12) = (   0.2500000   0.0000000   0.2500000), wk =   0.0468750
        k(   13) = (   0.0000000   0.5000000   0.0000000), wk =   0.0234375
        k(   14) = (  -0.1250000   0.6250000  -0.1250000), wk =   0.0937500
        k(   15) = (   0.7500000  -0.2500000   0.7500000), wk =   0.0937500
        k(   16) = (   0.6250000  -0.1250000   0.6250000), wk =   0.0937500
        k(   17) = (   0.5000000   0.0000000   0.5000000), wk =   0.0468750
        k(   18) = (   0.0000000   0.7500000   0.0000000), wk =   0.0234375
        k(   19) = (   0.8750000  -0.1250000   0.8750000), wk =   0.0937500
        k(   20) = (   0.7500000   0.0000000   0.7500000), wk =   0.0468750
        k(   21) = (   0.0000000  -1.0000000   0.0000000), wk =   0.0117188
        k(   22) = (  -0.2500000   0.5000000   0.0000000), wk =   0.0937500
        k(   23) = (   0.6250000  -0.3750000   0.8750000), wk =   0.1875000
        k(   24) = (   0.5000000  -0.2500000   0.7500000), wk =   0.0937500
        k(   25) = (   0.7500000  -0.2500000   1.0000000), wk =   0.0937500
        k(   26) = (   0.6250000  -0.1250000   0.8750000), wk =   0.1875000
        k(   27) = (   0.5000000   0.0000000   0.7500000), wk =   0.0937500
        k(   28) = (  -0.2500000  -1.0000000   0.0000000), wk =   0.0468750
        k(   29) = (  -0.5000000  -1.0000000   0.0000000), wk =   0.0234375

                       cryst. coord.
        k(    1) = (   0.0000000   0.0000000   0.0000000), wk =   0.0039062
        k(    2) = (   0.0000000   0.0000000   0.1250000), wk =   0.0312500
        k(    3) = (   0.0000000   0.0000000   0.2500000), wk =   0.0312500
        k(    4) = (   0.0000000   0.0000000   0.3750000), wk =   0.0312500
        k(    5) = (   0.0000000   0.0000000  -0.5000000), wk =   0.0156250
        k(    6) = (   0.0000000   0.1250000   0.1250000), wk =   0.0234375
        k(    7) = (   0.0000000   0.1250000   0.2500000), wk =   0.0937500
        k(    8) = (   0.0000000   0.1250000   0.3750000), wk =   0.0937500
        k(    9) = (   0.0000000   0.1250000  -0.5000000), wk =   0.0937500
        k(   10) = (   0.0000000   0.1250000  -0.3750000), wk =   0.0937500
        k(   11) = (   0.0000000   0.1250000  -0.2500000), wk =   0.0937500
        k(   12) = (   0.0000000   0.1250000  -0.1250000), wk =   0.0468750
        k(   13) = (   0.0000000   0.2500000   0.2500000), wk =   0.0234375
        k(   14) = (   0.0000000   0.2500000   0.3750000), wk =   0.0937500
        k(   15) = (   0.0000000   0.2500000  -0.5000000), wk =   0.0937500
        k(   16) = (   0.0000000   0.2500000  -0.3750000), wk =   0.0937500
        k(   17) = (   0.0000000   0.2500000  -0.2500000), wk =   0.0468750
        k(   18) = (   0.0000000   0.3750000   0.3750000), wk =   0.0234375
        k(   19) = (   0.0000000   0.3750000  -0.5000000), wk =   0.0937500
        k(   20) = (   0.0000000   0.3750000  -0.3750000), wk =   0.0468750
        k(   21) = (   0.0000000  -0.5000000  -0.5000000), wk =   0.0117188
        k(   22) = (   0.1250000   0.2500000   0.3750000), wk =   0.0937500
        k(   23) = (   0.1250000   0.2500000  -0.5000000), wk =   0.1875000
        k(   24) = (   0.1250000   0.2500000  -0.3750000), wk =   0.0937500
        k(   25) = (   0.1250000   0.3750000  -0.5000000), wk =   0.0937500
        k(   26) = (   0.1250000   0.3750000  -0.3750000), wk =   0.1875000
        k(   27) = (   0.1250000   0.3750000  -0.2500000), wk =   0.0937500
        k(   28) = (   0.1250000  -0.5000000  -0.3750000), wk =   0.0468750
        k(   29) = (   0.2500000  -0.5000000  -0.2500000), wk =   0.0234375

     Dense  grid:    15065 G-vectors     FFT dimensions: (  36,  36,  36)

     Dynamical RAM for                 wfc:       0.86 MB

     Dynamical RAM for     wfc (w. buffer):      25.82 MB

     Dynamical RAM for           str. fact:       0.69 MB

     Dynamical RAM for           local pot:       0.00 MB

     Dynamical RAM for          nlocal pot:       1.55 MB

     Dynamical RAM for                qrad:       3.41 MB

     Dynamical RAM for          rho,v,vnew:       1.76 MB

     Dynamical RAM for               rhoin:       0.59 MB

     Dynamical RAM for            rho*nmix:       3.68 MB

     Dynamical RAM for           G-vectors:       0.98 MB

     Dynamical RAM for          h,s,v(r/c):       0.16 MB

     Dynamical RAM for          <psi|beta>:       0.02 MB

     Dynamical RAM for                 psi:       1.72 MB

     Dynamical RAM for                hpsi:       1.72 MB

     Dynamical RAM for                spsi:       1.72 MB

     Dynamical RAM for      wfcinit/wfcrot:       1.74 MB

     Dynamical RAM for           addusdens:      42.99 MB

     Estimated static dynamical RAM per process >      41.16 MB

     Estimated max dynamical RAM per process >      84.15 MB

     Check: negative core charge=   -0.000003

     Initial potential from superposition of free atoms

     starting charge   30.99935, renormalised to   31.00000
     Starting wfcs are   27 randomized atomic wfcs +    3 random wfcs
     Checking if some PAW data can be deallocated... 

     total cpu time spent up to now is        2.5 secs

     Self-consistent Calculation

     iteration #  1     ecut=    50.00 Ry     beta= 0.70
     Davidson diagonalization with overlap
     ethr =  1.00E-02,  avg # of iterations =  5.8

     total cpu time spent up to now is        7.5 secs

     total energy              =   -1144.61813248 Ry
     estimated scf accuracy    <       1.85280474 Ry

     iteration #  2     ecut=    50.00 Ry     beta= 0.70
     Davidson diagonalization with overlap
     ethr =  5.98E-03,  avg # of iterations =  2.2

     total cpu time spent up to now is       12.0 secs

     total energy              =   -1142.65200303 Ry
     estimated scf accuracy    <      47.68030932 Ry

     iteration #  3     ecut=    50.00 Ry     beta= 0.70
     Davidson diagonalization with overlap
     ethr =  5.98E-03,  avg # of iterations =  2.0

     total cpu time spent up to now is       15.7 secs

     total energy              =   -1145.97290518 Ry
     estimated scf accuracy    <       0.42870553 Ry

     iteration #  4     ecut=    50.00 Ry     beta= 0.70
     Davidson diagonalization with overlap
     ethr =  1.38E-03,  avg # of iterations =  1.3

     total cpu time spent up to now is       19.3 secs

     total energy              =   -1146.02783061 Ry
     estimated scf accuracy    <       0.05616289 Ry

     iteration #  5     ecut=    50.00 Ry     beta= 0.70
     Davidson diagonalization with overlap
     ethr =  1.81E-04,  avg # of iterations =  3.0

     total cpu time spent up to now is       22.9 secs

     total energy              =   -1146.02777596 Ry
     estimated scf accuracy    <       0.02129061 Ry

     iteration #  6     ecut=    50.00 Ry     beta= 0.70
     Davidson diagonalization with overlap
     ethr =  6.87E-05,  avg # of iterations =  2.8

     total cpu time spent up to now is       26.4 secs

     total energy              =   -1146.03009739 Ry
     estimated scf accuracy    <       0.00147050 Ry

     iteration #  7     ecut=    50.00 Ry     beta= 0.70
     Davidson diagonalization with overlap
     ethr =  4.74E-06,  avg # of iterations =  7.7

     total cpu time spent up to now is       31.0 secs

     total energy              =   -1146.03051573 Ry
     estimated scf accuracy    <       0.00115509 Ry

     iteration #  8     ecut=    50.00 Ry     beta= 0.70
     Davidson diagonalization with overlap
     ethr =  3.73E-06,  avg # of iterations =  1.1

     total cpu time spent up to now is       34.3 secs

     total energy              =   -1146.03061506 Ry
     estimated scf accuracy    <       0.00002351 Ry

     iteration #  9     ecut=    50.00 Ry     beta= 0.70
     Davidson diagonalization with overlap
     ethr =  7.58E-08,  avg # of iterations =  4.3

     total cpu time spent up to now is       38.6 secs

     total energy              =   -1146.03062959 Ry
     estimated scf accuracy    <       0.00000105 Ry

     iteration # 10     ecut=    50.00 Ry     beta= 0.70
     Davidson diagonalization with overlap
     ethr =  3.39E-09,  avg # of iterations =  2.9

     total cpu time spent up to now is       42.4 secs

     total energy              =   -1146.03062984 Ry
     estimated scf accuracy    <       0.00000085 Ry

     iteration # 11     ecut=    50.00 Ry     beta= 0.70
     Davidson diagonalization with overlap
     ethr =  2.75E-09,  avg # of iterations =  1.1

     total cpu time spent up to now is       45.7 secs

     End of self-consistent calculation

          k = 0.0000 0.0000 0.0000 (  1893 PWs)   bands (ev):

     3.0157   6.8236   6.8236   7.2804   7.2804   7.2804   8.5054   8.5054
     8.5054   9.8834   9.8834  10.1672  10.1672  10.1672  10.7082  10.7082
    18.4724  18.4724  18.4724  20.4088  20.7661  21.3064  21.3064  21.3064
    23.5874  23.5874  23.5874  28.3416  28.3416  28.7308

     occupation numbers 
     1.0000   1.0000   1.0000   1.0000   1.0000   1.0000   1.0000   1.0000
     1.0000   1.0000   1.0000   1.0000   1.0000   1.0000   1.0196   1.0196
    -0.0000  -0.0000  -0.0000  -0.0000  -0.0000  -0.0000  -0.0000  -0.0000
    -0.0000  -0.0000  -0.0000  -0.0000  -0.0000  -0.0000

          k =-0.1250 0.1250-0.1250 (  1880 PWs)   bands (ev):

     3.2559   6.8898   6.8898   7.2347   7.3459   7.3459   8.4814   8.4814
     8.5742   9.7774   9.7774   9.9397  10.1314  10.1314  10.7211  10.7211
    16.5816  18.3960  18.3960  20.1952  21.1605  21.1605  21.3052  21.9377
    23.7112  23.7112  24.8409  29.0192  29.0192  29.9224

     occupation numbers 
     1.0000   1.0000   1.0000   1.0000   1.0000   1.0000   1.0000   1.0000
     1.0000   1.0000   1.0000   1.0000   1.0000   1.0000   1.0282   1.0282
    -0.0000  -0.0000  -0.0000  -0.0000  -0.0000  -0.0000  -0.0000  -0.0000
    -0.0000  -0.0000  -0.0000  -0.0000  -0.0000  -0.0000

          k =-0.2500 0.2500-0.2500 (  1889 PWs)   bands (ev):

     3.9451   7.0763   7.0763   7.1779   7.5071   7.5071   8.4268   8.4268
     8.6532   9.3927   9.4575   9.4575  10.1216  10.1216  10.7123  10.7123
    14.0509  18.1889  18.1889  19.6476  20.7205  20.7205  21.3909  23.3493
    24.4747  24.4747  27.9864  30.5562  30.5562  32.6966

     occupation numbers 
     1.0000   1.0000   1.0000   1.0000   1.0000   1.0000   1.0000   1.0000
     1.0000   1.0000   1.0000   1.0000   1.0000   1.0000   1.0222   1.0222
    -0.0000  -0.0000  -0.0000  -0.0000  -0.0000  -0.0000  -0.0000  -0.0000
    -0.0000  -0.0000  -0.0000  -0.0000  -0.0000  -0.0000

          k =-0.3750 0.3750-0.3750 (  1886 PWs)   bands (ev):

     4.9428   7.1743   7.3226   7.3226   7.6731   7.6731   8.2690   8.3891
     8.3891   9.0640   9.0640   9.0926  10.1562  10.1562  10.6608  10.6608
    12.0908  17.9388  17.9388  19.2747  20.3294  20.3294  21.2241  25.6034
    25.8603  25.8603  30.8501  30.8501  31.2515  32.9237

     occupation numbers 
     1.0000   1.0000   1.0000   1.0000   1.0000   1.0000   1.0000   1.0000
     1.0000   1.0000   1.0000   1.0000   1.0000   1.0000   1.0020   1.0020
    -0.0000  -0.0000  -0.0000  -0.0000  -0.0000  -0.0000  -0.0000  -0.0000
    -0.0000  -0.0000  -0.0000  -0.0000  -0.0000  -0.0000

          k = 0.5000-0.5000 0.5000 (  1892 PWs)   bands (ev):

     5.6334   7.1072   7.4566   7.4566   7.7433   7.7433   7.8368   8.3946
     8.3946   8.8516   8.8516   9.0852  10.1826  10.1826  10.6250  10.6250
    11.3212  17.8211  17.8211  19.1448  20.1946  20.1946  21.1630  26.9648
    26.9648  27.7034  29.5668  29.5668  29.6553  34.4160

     occupation numbers 
     1.0000   1.0000   1.0000   1.0000   1.0000   1.0000   1.0000   1.0000
     1.0000   1.0000   1.0000   1.0000   1.0000   1.0000   1.0002   1.0002
    -0.0000  -0.0000  -0.0000  -0.0000  -0.0000  -0.0000  -0.0000  -0.0000
    -0.0000  -0.0000  -0.0000  -0.0000  -0.0000  -0.0000

          k = 0.0000 0.2500 0.0000 (  1884 PWs)   bands (ev):

     3.3343   6.8792   6.9240   7.1954   7.3790   7.3790   8.3849   8.5755
     8.5755   9.6407   9.8662  10.0661  10.0661  10.0716  10.6302  10.7707
    17.3702  17.3702  17.6120  19.4507  20.6534  21.9367  21.9367  22.4948
    23.8394  24.7352  24.7352  28.2576  28.5526  31.2472

     occupation numbers 
     1.0000   1.0000   1.0000   1.0000   1.0000   1.0000   1.0000   1.0000
     1.0000   1.0000   1.0000   1.0000   1.0000   1.0000   1.0002   0.9787
    -0.0000  -0.0000  -0.0000  -0.0000  -0.0000  -0.0000  -0.0000  -0.0000
    -0.0000  -0.0000  -0.0000  -0.0000  -0.0000  -0.0000

          k =-0.1250 0.3750-0.1250 (  1894 PWs)   bands (ev):

     3.8691   6.9377   7.0778   7.1482   7.5059   7.5357   8.2165   8.6176
     8.6631   9.4183   9.6599   9.7126  10.0606  10.1142  10.5704  10.7867
    14.9494  16.6682  17.9393  18.6228  20.6561  21.9965  22.2192  23.4576
    24.7006  25.6119  27.0174  28.9116  29.6965  33.9400

     occupation numbers 
     1.0000   1.0000   1.0000   1.0000   1.0000   1.0000   1.0000   1.0000
     1.0000   1.0000   1.0000   1.0000   1.0000   1.0000   1.0000   0.8833
    -0.0000  -0.0000  -0.0000  -0.0000  -0.0000  -0.0000  -0.0000  -0.0000
    -0.0000  -0.0000  -0.0000  -0.0000  -0.0000  -0.0000

          k =-0.2500 0.5000-0.2500 (  1887 PWs)   bands (ev):

     4.7660   6.9797   7.1905   7.3018   7.6582   7.7719   8.0909   8.5979
     8.6014   9.1396   9.2415   9.3295  10.1209  10.1396  10.5505  10.7570
    12.6851  16.4049  17.0298  18.7160  21.1847  21.9617  22.5416  23.3254
    26.5344  26.7054  29.7521  30.1308  31.5661  32.4413

     occupation numbers 
     1.0000   1.0000   1.0000   1.0000   1.0000   1.0000   1.0000   1.0000
     1.0000   1.0000   1.0000   1.0000   1.0000   1.0000   1.0000   1.0205
    -0.0000  -0.0000  -0.0000  -0.0000  -0.0000  -0.0000  -0.0000  -0.0000
    -0.0000  -0.0000  -0.0000  -0.0000  -0.0000  -0.0000

          k = 0.6250-0.3750 0.6250 (  1880 PWs)   bands (ev):

     5.6765   6.8519   7.3014   7.4591   7.7524   7.8019   8.2155   8.3927
     8.5223   8.8525   8.9501   9.1934  10.1285  10.1947  10.6318  10.6528
    11.3834  16.2202  16.6474  18.7951  21.1938  21.5105  22.8931  24.8378
    27.1331  27.8420  29.4624  29.6108  32.1348  33.1930

     occupation numbers 
     1.0000   1.0000   1.0000   1.0000   1.0000   1.0000   1.0000   1.0000
     1.0000   1.0000   1.0000   1.0000   1.0000   1.0000   1.0003   1.0012
    -0.0000  -0.0000  -0.0000  -0.0000  -0.0000  -0.0000  -0.0000  -0.0000
    -0.0000  -0.0000  -0.0000  -0.0000  -0.0000  -0.0000

          k = 0.5000-0.2500 0.5000 (  1881 PWs)   bands (ev):

     5.4204   6.9574   7.3107   7.4068   7.7911   7.8299   8.1132   8.3111
     8.5751   8.8908   8.9957   9.2316  10.1076  10.2187  10.5250  10.7534
    11.7072  15.7654  17.3972  19.0222  21.0641  21.1015  23.0722  25.3482
    25.4149  27.4577  29.8353  31.1928  31.2881  32.8553

     occupation numbers 
     1.0000   1.0000   1.0000   1.0000   1.0000   1.0000   1.0000   1.0000
     1.0000   1.0000   1.0000   1.0000   1.0000   1.0000   1.0000   1.0264
    -0.0000  -0.0000  -0.0000  -0.0000  -0.0000  -0.0000  -0.0000  -0.0000
    -0.0000  -0.0000  -0.0000  -0.0000  -0.0000  -0.0000

          k = 0.3750-0.1250 0.3750 (  1884 PWs)   bands (ev):

     4.4402   7.0664   7.1533   7.1920   7.6526   7.6989   8.2587   8.3997
     8.6397   9.2157   9.2386   9.4709  10.1059  10.1596  10.5084  10.8182
    13.4223  15.7390  18.5466  19.5205  20.5386  21.0393  22.6260  23.8423
    24.0315  27.3870  28.7813  29.8173  31.2528  32.5543

     occupation numbers 
     1.0000   1.0000   1.0000   1.0000   1.0000   1.0000   1.0000   1.0000
     1.0000   1.0000   1.0000   1.0000   1.0000   1.0000   1.0000   0.5513
    -0.0000  -0.0000  -0.0000  -0.0000  -0.0000  -0.0000  -0.0000  -0.0000
    -0.0000  -0.0000  -0.0000  -0.0000  -0.0000  -0.0000

          k = 0.2500 0.0000 0.2500 (  1895 PWs)   bands (ev):

     3.6448   6.9865   6.9888   7.1498   7.4463   7.4860   8.3577   8.5539
     8.6047   9.5473   9.5716   9.8050  10.0876  10.1240  10.6047  10.8019
    15.5886  16.3765  19.4377  20.0920  20.3505  20.7870  21.5783  23.2312
    23.2977  25.7576  26.2852  28.3576  30.6234  31.7818

     occupation numbers 
     1.0000   1.0000   1.0000   1.0000   1.0000   1.0000   1.0000   1.0000
     1.0000   1.0000   1.0000   1.0000   1.0000   1.0000   1.0000   0.7420
    -0.0000  -0.0000  -0.0000  -0.0000  -0.0000  -0.0000  -0.0000  -0.0000
    -0.0000  -0.0000  -0.0000  -0.0000  -0.0000  -0.0000

          k = 0.0000 0.5000 0.0000 (  1876 PWs)   bands (ev):

     4.2234   6.7959   7.1204   7.1940   7.5938   7.5938   7.9934   8.7601
     8.7601   9.3930   9.8031   9.9471   9.9471  10.0045  10.4345  10.7731
    15.4657  15.4657  16.3179  17.0183  20.0815  23.4592  23.4592  25.8641
    26.0760  26.9846  26.9846  28.0346  28.6721  33.8432

     occupation numbers 
     1.0000   1.0000   1.0000   1.0000   1.0000   1.0000   1.0000   1.0000
     1.0000   1.0000   1.0000   1.0000   1.0000   1.0000   1.0000   0.9679
    -0.0000  -0.0000  -0.0000  -0.0000  -0.0000  -0.0000  -0.0000  -0.0000
    -0.0000  -0.0000  -0.0000  -0.0000  -0.0000  -0.0000

          k =-0.1250 0.6250-0.1250 (  1894 PWs)   bands (ev):

     4.9342   6.7344   7.0114   7.3766   7.7166   7.7360   7.9542   8.7809
     8.8035   9.3335   9.5442   9.7280  10.0276  10.1277  10.4346  10.7768
    13.4265  14.8340  15.0990  17.6554  20.4382  23.7256  23.9232  26.0904
    27.7273  27.8132  28.6249  29.0133  30.5046  32.4396

     occupation numbers 
     1.0000   1.0000   1.0000   1.0000   1.0000   1.0000   1.0000   1.0000
     1.0000   1.0000   1.0000   1.0000   1.0000   1.0000   1.0000   0.9487
    -0.0000  -0.0000  -0.0000  -0.0000  -0.0000  -0.0000  -0.0000  -0.0000
    -0.0000  -0.0000  -0.0000  -0.0000  -0.0000  -0.0000

          k = 0.7500-0.2500 0.7500 (  1881 PWs)   bands (ev):

     5.7910   6.6328   6.9890   7.4957   7.6472   7.9090   8.2321   8.6708
     8.8904   9.0950   9.1720   9.5563   9.9904  10.2663  10.6530  10.7571
    11.5979  14.1151  14.9450  18.2331  21.8547  23.4655  23.6554  25.8306
    27.4895  28.1524  29.3697  30.1300  31.9285  32.9850

     occupation numbers 
     1.0000   1.0000   1.0000   1.0000   1.0000   1.0000   1.0000   1.0000
     1.0000   1.0000   1.0000   1.0000   1.0000   1.0000   1.0012   1.0203
    -0.0000  -0.0000  -0.0000  -0.0000  -0.0000  -0.0000  -0.0000  -0.0000
    -0.0000  -0.0000  -0.0000  -0.0000  -0.0000  -0.0000

          k = 0.6250-0.1250 0.6250 (  1869 PWs)   bands (ev):

     6.0070   6.6586   7.1813   7.4888   7.4888   8.0596   8.3665   8.4962
     8.7180   8.8958   9.1677   9.3557   9.9997  10.2080  10.6569  10.8163
    11.5458  13.4784  15.7671  18.5596  22.6780  23.2153  24.1503  25.2772
    25.3509  26.9114  30.3137  31.2194  32.6603  33.3034

     occupation numbers 
     1.0000   1.0000   1.0000   1.0000   1.0000   1.0000   1.0000   1.0000
     1.0000   1.0000   1.0000   1.0000   1.0000   1.0000   1.0016   0.5744
    -0.0000  -0.0000  -0.0000  -0.0000  -0.0000  -0.0000  -0.0000  -0.0000
    -0.0000  -0.0000  -0.0000  -0.0000  -0.0000  -0.0000

          k = 0.5000 0.0000 0.5000 (  1883 PWs)   bands (ev):

     5.2382   6.9376   7.1647   7.3688   7.7776   7.9312   8.2049   8.2589
     8.6847   8.9272   9.1620   9.4383  10.0522  10.2148  10.4413  10.8618
    12.9875  13.5249  17.0826  18.9472  22.2763  22.4386  22.8279  23.8728
    26.1427  27.2918  28.9423  31.1081  31.6293  32.9500

     occupation numbers 
     1.0000   1.0000   1.0000   1.0000   1.0000   1.0000   1.0000   1.0000
     1.0000   1.0000   1.0000   1.0000   1.0000   1.0000   1.0000   0.0892
    -0.0000  -0.0000  -0.0000  -0.0000  -0.0000  -0.0000  -0.0000  -0.0000
    -0.0000  -0.0000  -0.0000  -0.0000  -0.0000  -0.0000

          k = 0.0000 0.7500 0.0000 (  1872 PWs)   bands (ev):

     5.3685   6.5456   6.8951   7.5245   7.7697   7.7697   7.9474   8.8380
     8.8380   9.4459   9.6707   9.9053  10.2470  10.2802  10.2802  10.8186
    13.4142  13.7085  13.7085  16.7663  19.8669  25.6228  25.6228  27.7801
    28.4525  28.8317  29.1473  29.1473  30.3017  32.2225

     occupation numbers 
     1.0000   1.0000   1.0000   1.0000   1.0000   1.0000   1.0000   1.0000
     1.0000   1.0000   1.0000   1.0000   1.0000   1.0000   1.0000   0.5463
    -0.0000  -0.0000  -0.0000  -0.0000  -0.0000  -0.0000  -0.0000  -0.0000
    -0.0000  -0.0000  -0.0000  -0.0000  -0.0000  -0.0000

          k = 0.8750-0.1250 0.8750 (  1869 PWs)   bands (ev):

     5.8872   6.4420   6.9224   7.5933   7.6692   7.9119   8.1178   8.7406
     8.9541   9.4227   9.5484   9.8166   9.9437  10.6012  10.6972  10.9690
    12.0265  12.6446  13.4821  17.3960  20.2864  25.7943  25.9175  27.6475
    27.9181  29.0862  29.6780  30.5460  31.5991  31.6092

     occupation numbers 
     1.0000   1.0000   1.0000   1.0000   1.0000   1.0000   1.0000   1.0000
     1.0000   1.0000   1.0000   1.0000   1.0000   1.0000   1.0130  -0.0047
    -0.0000  -0.0000  -0.0000  -0.0000  -0.0000  -0.0000  -0.0000  -0.0000
    -0.0000  -0.0000  -0.0000  -0.0000  -0.0000  -0.0000

          k = 0.7500 0.0000 0.7500 (  1878 PWs)   bands (ev):

     6.2832   6.4140   7.0874   7.3514   7.5498   8.1207   8.2801   8.5638
     9.0947   9.2447   9.3085   9.6674   9.8832  10.5680  10.8312  10.8406
    11.5580  12.0220  14.3228  18.1137  21.7933  25.2647  25.4447  25.4492
    25.7147  29.3508  29.9973  30.7710  32.1110  32.9156

     occupation numbers 
     1.0000   1.0000   1.0000   1.0000   1.0000   1.0000   1.0000   1.0000
     1.0000   1.0000   1.0000   1.0000   1.0000   1.0000   0.3912   0.2818
    -0.0000  -0.0000  -0.0000  -0.0000  -0.0000  -0.0000  -0.0000  -0.0000
    -0.0000  -0.0000  -0.0000  -0.0000  -0.0000  -0.0000

          k = 0.0000-1.0000 0.0000 (  1868 PWs)   bands (ev):

     5.9278   6.3054   6.9833   7.6919   7.8334   7.8334   8.0497   8.8061
     8.8061   9.5275   9.5722   9.8237  10.1819  10.7644  10.7644  11.2095
    11.7040  12.7778  12.7778  16.7204  19.8136  27.5076  27.5076  27.6650
    28.6947  29.3574  29.3574  30.5284  30.9315  30.9315

     occupation numbers 
     1.0000   1.0000   1.0000   1.0000   1.0000   1.0000   1.0000   1.0000
     1.0000   1.0000   1.0000   1.0000   1.0000   1.0020   1.0020  -0.0000
    -0.0000  -0.0000  -0.0000  -0.0000  -0.0000  -0.0000  -0.0000  -0.0000
    -0.0000  -0.0000  -0.0000  -0.0000  -0.0000  -0.0000

          k =-0.2500 0.5000 0.0000 (  1889 PWs)   bands (ev):

     4.5037   6.9014   7.0962   7.2728   7.6548   7.7175   8.0316   8.6328
     8.7163   9.3086   9.3765   9.6125  10.0773  10.1369  10.4496  10.8142
    14.1265  14.7472  16.9047  19.0517  20.8075  21.5513  23.5786  24.4096
    25.3053  27.9027  28.5551  28.7749  30.5055  32.4722

     occupation numbers 
     1.0000   1.0000   1.0000   1.0000   1.0000   1.0000   1.0000   1.0000
     1.0000   1.0000   1.0000   1.0000   1.0000   1.0000   1.0000   0.5998
    -0.0000  -0.0000  -0.0000  -0.0000  -0.0000  -0.0000  -0.0000  -0.0000
    -0.0000  -0.0000  -0.0000  -0.0000  -0.0000  -0.0000

          k = 0.6250-0.3750 0.8750 (  1880 PWs)   bands (ev):

     5.3939   6.8456   7.0517   7.4698   7.7687   7.8104   8.1674   8.5162
     8.7569   8.9848   9.1576   9.4531  10.0296  10.2400  10.4993  10.8104
    12.2559  14.3673  15.7801  19.6375  20.8492  22.2766  23.9143  25.0435
    26.3953  27.5288  29.5718  30.4925  31.7515  32.4492

     occupation numbers 
     1.0000   1.0000   1.0000   1.0000   1.0000   1.0000   1.0000   1.0000
     1.0000   1.0000   1.0000   1.0000   1.0000   1.0000   1.0000   0.6464
    -0.0000  -0.0000  -0.0000  -0.0000  -0.0000  -0.0000  -0.0000  -0.0000
    -0.0000  -0.0000  -0.0000  -0.0000  -0.0000  -0.0000

          k = 0.5000-0.2500 0.7500 (  1868 PWs)   bands (ev):

     6.0298   6.6028   7.1414   7.4631   7.7556   7.8748   8.4025   8.4412
     8.7140   8.8468   9.1318   9.3197  10.0032  10.3270  10.6193  10.7653
    11.2600  14.5492  15.1533  19.6967  20.7190  23.6961  24.0803  24.9671
    25.6408  28.0491  29.1726  32.2154  32.3169  32.6848

     occupation numbers 
     1.0000   1.0000   1.0000   1.0000   1.0000   1.0000   1.0000   1.0000
     1.0000   1.0000   1.0000   1.0000   1.0000   1.0000   1.0001   0.9993
    -0.0000  -0.0000  -0.0000  -0.0000  -0.0000  -0.0000  -0.0000  -0.0000
    -0.0000  -0.0000  -0.0000  -0.0000  -0.0000  -0.0000

          k = 0.7500-0.2500 1.0000 (  1876 PWs)   bands (ev):

     5.5955   6.6544   6.8739   7.5052   7.7038   7.8806   8.0909   8.7409
     8.8929   9.2952   9.4041   9.6686   9.9510  10.3420  10.5690  10.8305
    12.7970  13.2362  14.0009  18.4078  20.6577  23.2068  25.8301  26.9767
    27.7521  27.9621  28.9700  30.5756  31.3303  32.3009

     occupation numbers 
     1.0000   1.0000   1.0000   1.0000   1.0000   1.0000   1.0000   1.0000
     1.0000   1.0000   1.0000   1.0000   1.0000   1.0000   1.0000   0.3995
    -0.0000  -0.0000  -0.0000  -0.0000  -0.0000  -0.0000  -0.0000  -0.0000
    -0.0000  -0.0000  -0.0000  -0.0000  -0.0000  -0.0000

          k = 0.6250-0.1250 0.8750 (  1872 PWs)   bands (ev):

     6.2061   6.5281   6.9700   7.3382   7.7284   8.0734   8.2640   8.6179
     8.8829   9.1769   9.2651   9.6089   9.8950  10.6268  10.8196  10.9403
    11.3746  12.8124  13.6295  19.3447  21.8760  22.6599  24.7668  26.2688
    28.0266  28.4894  29.4399  31.0971  31.8643  32.1802

     occupation numbers 
     1.0000   1.0000   1.0000   1.0000   1.0000   1.0000   1.0000   1.0000
     1.0000   1.0000   1.0000   1.0000   1.0000   1.0002   0.5346  -0.0171
    -0.0000  -0.0000  -0.0000  -0.0000  -0.0000  -0.0000  -0.0000  -0.0000
    -0.0000  -0.0000  -0.0000  -0.0000  -0.0000  -0.0000

          k = 0.5000 0.0000 0.7500 (  1873 PWs)   bands (ev):

     6.0672   6.6615   7.0122   7.3540   7.7736   8.0433   8.3057   8.4923
     8.7172   9.1220   9.2033   9.4977   9.9253  10.3565  10.6894  10.8696
    12.1447  12.4526  14.5283  19.9183  21.6234  22.7278  24.3563  25.7908
    26.5356  28.4148  28.9487  31.5757  31.9526  33.4550

     occupation numbers 
     1.0000   1.0000   1.0000   1.0000   1.0000   1.0000   1.0000   1.0000
     1.0000   1.0000   1.0000   1.0000   1.0000   1.0000   1.0093   0.0417
    -0.0000  -0.0000  -0.0000  -0.0000  -0.0000  -0.0000  -0.0000  -0.0000
    -0.0000  -0.0000  -0.0000  -0.0000  -0.0000  -0.0000

          k =-0.2500-1.0000 0.0000 (  1872 PWs)   bands (ev):

     6.1120   6.4275   6.9966   7.4451   7.6536   8.0497   8.1642   8.7280
     9.0535   9.3960   9.4804   9.6171   9.8775  10.7918  10.8690  11.3075
    11.6195  12.4097  12.5964  18.2230  20.5886  25.0250  25.3696  27.9936
    28.2830  29.0430  30.1460  30.5778  31.4031  31.8163

     occupation numbers 
     1.0000   1.0000   1.0000   1.0000   1.0000   1.0000   1.0000   1.0000
     1.0000   1.0000   1.0000   1.0000   1.0000   0.8405   0.0451  -0.0000
    -0.0000  -0.0000  -0.0000  -0.0000  -0.0000  -0.0000  -0.0000  -0.0000
    -0.0000  -0.0000  -0.0000  -0.0000  -0.0000  -0.0000

          k =-0.5000-1.0000 0.0000 (  1888 PWs)   bands (ev):

     6.3095   6.6428   7.0185   7.0763   7.9660   8.1004   8.2268   8.6508
     8.6660   9.2173   9.2877   9.6790   9.8809  10.8002  10.9580  11.5567
    11.6793  11.7803  12.5114  21.3181  21.4005  22.2234  23.0069  28.3510
    28.6546  28.9984  30.2927  30.2960  30.6763  31.4050

     occupation numbers 
     1.0000   1.0000   1.0000   1.0000   1.0000   1.0000   1.0000   1.0000
     1.0000   1.0000   1.0000   1.0000   1.0000   0.7600  -0.0081  -0.0000
    -0.0000  -0.0000  -0.0000  -0.0000  -0.0000  -0.0000  -0.0000  -0.0000
    -0.0000  -0.0000  -0.0000  -0.0000  -0.0000  -0.0000

     the Fermi energy is    10.8223 ev

!    total energy              =   -1146.03062990 Ry

     total all-electron energy =    -43178.990009 Ry
     estimated scf accuracy    <          3.9E-09 Ry
     smearing contrib. (-TS)   =      -0.00048211 Ry
     internal energy E=F+TS    =   -1146.03014779 Ry

     The total energy is F=E-TS. E is the sum of the following terms:
     one-electron contribution =     -56.82638487 Ry
     hartree contribution      =      70.15961201 Ry
     xc contribution           =    -110.10527526 Ry
     ewald contribution        =    -189.65695075 Ry
     one-center paw contrib.   =    -859.60114893 Ry
      -> PAW hartree energy AE =     229.22246263 Ry
      -> PAW hartree energy PS =    -228.14082062 Ry
      -> PAW xc energy AE      =    -970.55176995 Ry
      -> PAW xc energy PS      =     109.86897901 Ry
      -> total E_H with PAW    =      71.24125403 Ry
      -> total E_XC with PAW   =    -970.78806620 Ry

     convergence has been achieved in  11 iterations

     Writing output data file ././CuPtNi.save/

     init_run     :      3.06s CPU      2.27s WALL (       1 calls)
     electrons    :     69.92s CPU     43.20s WALL (       1 calls)

     Called by init_run:
     wfcinit      :      1.81s CPU      1.08s WALL (       1 calls)
     wfcinit:atom :      0.05s CPU      0.02s WALL (      29 calls)
     wfcinit:wfcr :      1.66s CPU      1.02s WALL (      29 calls)
     potinit      :      0.34s CPU      0.37s WALL (       1 calls)
     hinit0       :      0.77s CPU      0.72s WALL (       1 calls)

     Called by electrons:
     c_bands      :     52.79s CPU     31.07s WALL (      11 calls)
     sum_band     :     11.52s CPU      7.02s WALL (      11 calls)
     v_of_rho     :      0.33s CPU      0.24s WALL (      12 calls)
     v_h          :      0.02s CPU      0.01s WALL (      12 calls)
     v_xc         :      0.32s CPU      0.23s WALL (      12 calls)
     newd         :      1.14s CPU      0.99s WALL (      12 calls)
     PAW_pot      :      4.49s CPU      4.27s WALL (      12 calls)
     mix_rho      :      0.06s CPU      0.03s WALL (      11 calls)

     Called by c_bands:
     init_us_2    :      1.22s CPU      0.62s WALL (     667 calls)
     cegterg      :     48.52s CPU     28.56s WALL (     319 calls)

     Called by sum_band:
     sum_band:wei :      0.02s CPU      0.01s WALL (      11 calls)
     sum_band:loo :      9.37s CPU      5.80s WALL (      11 calls)
     sum_band:buf :      0.06s CPU      0.03s WALL (     319 calls)
     sum_band:ini :      0.52s CPU      0.29s WALL (     319 calls)
     sum_band:cal :      0.26s CPU      0.20s WALL (     319 calls)
     sum_band:bec :      0.01s CPU      0.01s WALL (     319 calls)
     addusdens    :      2.07s CPU      1.18s WALL (      11 calls)
     addusd:skk   :      0.00s CPU      0.00s WALL (      33 calls)
     addusd:dgemm :      1.10s CPU      0.48s WALL (      33 calls)
     addusd:qvan2 :      0.84s CPU      0.56s WALL (      33 calls)

     Called by *egterg:
     cdiaghg      :      2.62s CPU      1.24s WALL (    1306 calls)
     cegterg:over :      1.12s CPU      0.47s WALL (     987 calls)
     cegterg:upda :      0.90s CPU      0.40s WALL (     987 calls)
     cegterg:last :      1.39s CPU      0.57s WALL (     603 calls)
     h_psi        :     42.16s CPU     25.94s WALL (    1335 calls)
     s_psi        :      0.76s CPU      0.41s WALL (    1335 calls)
     g_psi        :      0.40s CPU      0.17s WALL (     987 calls)

     Called by h_psi:
     h_psi:calbec :      0.91s CPU      0.75s WALL (    1335 calls)
     vloc_psi     :     40.20s CPU     24.65s WALL (    1335 calls)
     add_vuspsi   :      0.78s CPU      0.40s WALL (    1335 calls)

     General routines
     calbec       :      1.17s CPU      0.95s WALL (    1654 calls)
     fft          :      0.15s CPU      0.11s WALL (     132 calls)
     ffts         :      0.02s CPU      0.01s WALL (      11 calls)
     fftw         :     42.14s CPU     25.86s WALL (   57246 calls)

     Parallel routines

     PAW routines
     PAW_pot      :      4.49s CPU      4.27s WALL (      12 calls)
     PAW_symme    :      0.01s CPU      0.01s WALL (      23 calls)

     PWSCF        :   1m13.25s CPU     45.76s WALL


   This run was terminated on:  13: 0:11  22May2024            

=------------------------------------------------------------------------------=
   JOB DONE.
=------------------------------------------------------------------------------=
