
     Program PWSCF v.6.7MaX starts on 22May2024 at 12:58:38 

     This program is part of the open-source Quantum ESPRESSO suite
     for quantum simulation of materials; please cite
         "P. Giannozzi et al., J. Phys.:Condens. Matter 21 395502 (2009);
         "P. Giannozzi et al., J. Phys.:Condens. Matter 29 465901 (2017);
          URL http://www.quantum-espresso.org", 
     in publications or presentations arising from this work. More details at
     http://www.quantum-espresso.org/quote

     Parallel version (MPI), running on     1 processors

     MPI processes distributed on     1 nodes
     Waiting for input...
     Reading input from standard input

     Current dimensions of program PWSCF are:
     Max number of different atomic species (ntypx) = 10
     Max number of k-points (npk) =  40000
     Max angular momentum in pseudopotentials (lmaxx) =  3
     file Cu.UPF: wavefunction(s)  4S 3D renormalized
     file Pt.UPF: wavefunction(s)  6S 5D renormalized
     file Ni.UPF: wavefunction(s)  4S 3D renormalized

     Subspace diagonalization in iterative solution of the eigenvalue problem:
     a serial algorithm will be used


     G-vector sticks info
     --------------------
     sticks:   dense  smooth     PW     G-vecs:    dense   smooth      PW
     Sum         793     793    241                14649    14649    2445



     bravais-lattice index     =            2
     lattice parameter (alat)  =      10.7000  a.u.
     unit-cell volume          =     306.2607 (a.u.)^3
     number of atoms/cell      =            3
     number of atomic types    =            3
     number of electrons       =        31.00
     number of Kohn-Sham states=           30
     kinetic-energy cutoff     =      50.0000  Ry
     charge density cutoff     =     200.0000  Ry
     scf convergence threshold =      1.0E-07
     mixing beta               =       0.7000
     number of iterations used =            8  plain     mixing
     Exchange-correlation= SLA  PW   PBX  PBC
                           (   1   4   3   4   0   0   0)

     celldm(1)=  10.700000  celldm(2)=   0.000000  celldm(3)=   0.000000
     celldm(4)=   0.000000  celldm(5)=   0.000000  celldm(6)=   0.000000

     crystal axes: (cart. coord. in units of alat)
               a(1) = (  -0.500000   0.000000   0.500000 )  
               a(2) = (   0.000000   0.500000   0.500000 )  
               a(3) = (  -0.500000   0.500000   0.000000 )  

     reciprocal axes: (cart. coord. in units 2 pi/alat)
               b(1) = ( -1.000000 -1.000000  1.000000 )  
               b(2) = (  1.000000  1.000000  1.000000 )  
               b(3) = ( -1.000000  1.000000 -1.000000 )  


     PseudoPot. # 1 for Cu read from file:
     ././Cu.UPF
     MD5 check sum: cfffd1f38ee05704b3e17f46f1730a6f
     Pseudo is Projector augmented-wave + core cor, Zval = 11.0
     Generated using &quot;atomic&quot; code by A. Dal Corso  v.6.3
     Shape of augmentation charge: PSQ
     Using radial grid of 1199 points,  6 beta functions with: 
                l(1) =   0
                l(2) =   0
                l(3) =   1
                l(4) =   1
                l(5) =   2
                l(6) =   2
     Q(r) pseudized with 0 coefficients 


     PseudoPot. # 2 for Pt read from file:
     ././Pt.UPF
     MD5 check sum: c5224e9cd7a5e36e81f2def9f50bb494
     Pseudo is Projector augmented-wave + core cor, Zval = 10.0
     Generated using &quot;atomic&quot; code by A. Dal Corso  v.6.3
     Shape of augmentation charge: PSQ
     Using radial grid of 1277 points,  6 beta functions with: 
                l(1) =   0
                l(2) =   0
                l(3) =   1
                l(4) =   1
                l(5) =   2
                l(6) =   2
     Q(r) pseudized with 0 coefficients 


     PseudoPot. # 3 for Ni read from file:
     ././Ni.UPF
     MD5 check sum: 5bc40517020091042a126ac2b4ecef1e
     Pseudo is Projector augmented-wave + core cor, Zval = 10.0
     Generated using "atomic" code by A. Dal Corso  v.5.0.2 svn rev. 9415
     Shape of augmentation charge: PSQ
     Using radial grid of 1195 points,  6 beta functions with: 
                l(1) =   0
                l(2) =   0
                l(3) =   1
                l(4) =   1
                l(5) =   2
                l(6) =   2
     Q(r) pseudized with 0 coefficients 


     atomic species   valence    mass     pseudopotential
        Cu            11.00    63.54600     Cu( 1.00)
        Pt            10.00   195.08000     Pt( 1.00)
        Ni            10.00    58.69000     Ni( 1.00)

     24 Sym. Ops. (no inversion) found


                                    s                        frac. trans.

      isym =  1     identity                                     

 cryst.   s( 1) = (     1          0          0      )
                  (     0          1          0      )
                  (     0          0          1      )

 cart.    s( 1) = (  1.0000000  0.0000000  0.0000000 )
                  (  0.0000000  1.0000000  0.0000000 )
                  (  0.0000000  0.0000000  1.0000000 )


      isym =  2     180 deg rotation - cart. axis [0,0,1]        

 cryst.   s( 2) = (     0          1         -1      )
                  (     1          0         -1      )
                  (     0          0         -1      )

 cart.    s( 2) = ( -1.0000000  0.0000000  0.0000000 )
                  (  0.0000000 -1.0000000  0.0000000 )
                  (  0.0000000  0.0000000  1.0000000 )


      isym =  3     180 deg rotation - cart. axis [0,1,0]        

 cryst.   s( 3) = (    -1          0          0      )
                  (    -1          0          1      )
                  (    -1          1          0      )

 cart.    s( 3) = ( -1.0000000  0.0000000  0.0000000 )
                  (  0.0000000  1.0000000  0.0000000 )
                  (  0.0000000  0.0000000 -1.0000000 )


      isym =  4     180 deg rotation - cart. axis [1,0,0]        

 cryst.   s( 4) = (     0         -1          1      )
                  (     0         -1          0      )
                  (     1         -1          0      )

 cart.    s( 4) = (  1.0000000  0.0000000  0.0000000 )
                  (  0.0000000 -1.0000000  0.0000000 )
                  (  0.0000000  0.0000000 -1.0000000 )


      isym =  5     120 deg rotation - cart. axis [-1,-1,-1]     

 cryst.   s( 5) = (    -1          0          1      )
                  (    -1          1          0      )
                  (    -1          0          0      )

 cart.    s( 5) = (  0.0000000  1.0000000  0.0000000 )
                  (  0.0000000  0.0000000  1.0000000 )
                  (  1.0000000  0.0000000  0.0000000 )


      isym =  6     120 deg rotation - cart. axis [-1,1,1]       

 cryst.   s( 6) = (     0          1          0      )
                  (     0          0          1      )
                  (     1          0          0      )

 cart.    s( 6) = (  0.0000000 -1.0000000  0.0000000 )
                  (  0.0000000  0.0000000  1.0000000 )
                  ( -1.0000000  0.0000000  0.0000000 )


      isym =  7     120 deg rotation - cart. axis [1,1,-1]       

 cryst.   s( 7) = (     1          0         -1      )
                  (     0          0         -1      )
                  (     0          1         -1      )

 cart.    s( 7) = (  0.0000000  1.0000000  0.0000000 )
                  (  0.0000000  0.0000000 -1.0000000 )
                  ( -1.0000000  0.0000000  0.0000000 )


      isym =  8     120 deg rotation - cart. axis [1,-1,1]       

 cryst.   s( 8) = (     0         -1          0      )
                  (     1         -1          0      )
                  (     0         -1          1      )

 cart.    s( 8) = (  0.0000000 -1.0000000  0.0000000 )
                  (  0.0000000  0.0000000 -1.0000000 )
                  (  1.0000000  0.0000000  0.0000000 )


      isym =  9     120 deg rotation - cart. axis [1,1,1]        

 cryst.   s( 9) = (     0          0         -1      )
                  (     0          1         -1      )
                  (     1          0         -1      )

 cart.    s( 9) = (  0.0000000  0.0000000  1.0000000 )
                  (  1.0000000  0.0000000  0.0000000 )
                  (  0.0000000  1.0000000  0.0000000 )


      isym = 10     120 deg rotation - cart. axis [-1,1,-1]      

 cryst.   s(10) = (    -1          1          0      )
                  (    -1          0          0      )
                  (    -1          0          1      )

 cart.    s(10) = (  0.0000000  0.0000000  1.0000000 )
                  ( -1.0000000  0.0000000  0.0000000 )
                  (  0.0000000 -1.0000000  0.0000000 )


      isym = 11     120 deg rotation - cart. axis [1,-1,-1]      

 cryst.   s(11) = (     0          0          1      )
                  (     1          0          0      )
                  (     0          1          0      )

 cart.    s(11) = (  0.0000000  0.0000000 -1.0000000 )
                  ( -1.0000000  0.0000000  0.0000000 )
                  (  0.0000000  1.0000000  0.0000000 )


      isym = 12     120 deg rotation - cart. axis [-1,-1,1]      

 cryst.   s(12) = (     1         -1          0      )
                  (     0         -1          1      )
                  (     0         -1          0      )

 cart.    s(12) = (  0.0000000  0.0000000 -1.0000000 )
                  (  1.0000000  0.0000000  0.0000000 )
                  (  0.0000000 -1.0000000  0.0000000 )


      isym = 13     inv. 180 deg rotation - cart. axis [1,1,0]   

 cryst.   s(13) = (     0          1          0      )
                  (     1          0          0      )
                  (     0          0          1      )

 cart.    s(13) = (  0.0000000 -1.0000000  0.0000000 )
                  ( -1.0000000  0.0000000  0.0000000 )
                  (  0.0000000  0.0000000  1.0000000 )


      isym = 14     inv. 180 deg rotation - cart. axis [1,-1,0]  

 cryst.   s(14) = (     1          0         -1      )
                  (     0          1         -1      )
                  (     0          0         -1      )

 cart.    s(14) = (  0.0000000  1.0000000  0.0000000 )
                  (  1.0000000  0.0000000  0.0000000 )
                  (  0.0000000  0.0000000  1.0000000 )


      isym = 15     inv.  90 deg rotation - cart. axis [0,0,-1]  

 cryst.   s(15) = (     0         -1          0      )
                  (     0         -1          1      )
                  (     1         -1          0      )

 cart.    s(15) = (  0.0000000 -1.0000000  0.0000000 )
                  (  1.0000000  0.0000000  0.0000000 )
                  (  0.0000000  0.0000000 -1.0000000 )


      isym = 16     inv.  90 deg rotation - cart. axis [0,0,1]   

 cryst.   s(16) = (    -1          0          1      )
                  (    -1          0          0      )
                  (    -1          1          0      )

 cart.    s(16) = (  0.0000000  1.0000000  0.0000000 )
                  ( -1.0000000  0.0000000  0.0000000 )
                  (  0.0000000  0.0000000 -1.0000000 )


      isym = 17     inv. 180 deg rotation - cart. axis [1,0,1]   

 cryst.   s(17) = (     1          0          0      )
                  (     0          0          1      )
                  (     0          1          0      )

 cart.    s(17) = (  0.0000000  0.0000000 -1.0000000 )
                  (  0.0000000  1.0000000  0.0000000 )
                  ( -1.0000000  0.0000000  0.0000000 )


      isym = 18     inv. 180 deg rotation - cart. axis [-1,0,1]  

 cryst.   s(18) = (    -1          0          0      )
                  (    -1          1          0      )
                  (    -1          0          1      )

 cart.    s(18) = (  0.0000000  0.0000000  1.0000000 )
                  (  0.0000000  1.0000000  0.0000000 )
                  (  1.0000000  0.0000000  0.0000000 )


      isym = 19     inv.  90 deg rotation - cart. axis [0,1,0]   

 cryst.   s(19) = (     0         -1          1      )
                  (     1         -1          0      )
                  (     0         -1          0      )

 cart.    s(19) = (  0.0000000  0.0000000 -1.0000000 )
                  (  0.0000000 -1.0000000  0.0000000 )
                  (  1.0000000  0.0000000  0.0000000 )


      isym = 20     inv.  90 deg rotation - cart. axis [0,-1,0]  

 cryst.   s(20) = (     0          1         -1      )
                  (     0          0         -1      )
                  (     1          0         -1      )

 cart.    s(20) = (  0.0000000  0.0000000  1.0000000 )
                  (  0.0000000 -1.0000000  0.0000000 )
                  ( -1.0000000  0.0000000  0.0000000 )


      isym = 21     inv. 180 deg rotation - cart. axis [0,1,1]   

 cryst.   s(21) = (     1         -1          0      )
                  (     0         -1          0      )
                  (     0         -1          1      )

 cart.    s(21) = (  1.0000000  0.0000000  0.0000000 )
                  (  0.0000000  0.0000000 -1.0000000 )
                  (  0.0000000 -1.0000000  0.0000000 )


      isym = 22     inv. 180 deg rotation - cart. axis [0,1,-1]  

 cryst.   s(22) = (     0          0          1      )
                  (     0          1          0      )
                  (     1          0          0      )

 cart.    s(22) = (  1.0000000  0.0000000  0.0000000 )
                  (  0.0000000  0.0000000  1.0000000 )
                  (  0.0000000  1.0000000  0.0000000 )


      isym = 23     inv.  90 deg rotation - cart. axis [-1,0,0]  

 cryst.   s(23) = (     0          0         -1      )
                  (     1          0         -1      )
                  (     0          1         -1      )

 cart.    s(23) = ( -1.0000000  0.0000000  0.0000000 )
                  (  0.0000000  0.0000000 -1.0000000 )
                  (  0.0000000  1.0000000  0.0000000 )


      isym = 24     inv.  90 deg rotation - cart. axis [1,0,0]   

 cryst.   s(24) = (    -1          1          0      )
                  (    -1          0          1      )
                  (    -1          0          0      )

 cart.    s(24) = ( -1.0000000  0.0000000  0.0000000 )
                  (  0.0000000  0.0000000  1.0000000 )
                  (  0.0000000 -1.0000000  0.0000000 )


     point group T_d (-43m) 
     there are  5 classes
     the character table:

       E     8C3   3C2   6S4   6s_d 
A_1    1.00  1.00  1.00  1.00  1.00
A_2    1.00  1.00  1.00 -1.00 -1.00
E      2.00 -1.00  2.00  0.00  0.00
T_1    3.00  0.00 -1.00  1.00 -1.00
T_2    3.00  0.00 -1.00 -1.00  1.00

     the symmetry operations in each class and the name of the first element:

     E        1
          identity                                               
     8C3      5    7    8    6   12    9   10   11
          120 deg rotation - cart. axis [-1,-1,-1]               
     3C2      2    3    4
          180 deg rotation - cart. axis [0,0,1]                  
     6S4     15   16   20   19   23   24
          inv.  90 deg rotation - cart. axis [0,0,-1]            
     6s_d    13   14   17   18   21   22
          inv. 180 deg rotation - cart. axis [1,1,0]             

   Cartesian axes

     site n.     atom                  positions (alat units)
         1           Cu  tau(   1) = (   0.0000000   0.0000000   0.0000000  )
         2           Pt  tau(   2) = (   0.5000000   0.5000000   0.5000000  )
         3           Ni  tau(   3) = (   0.2500000   0.2500000   0.2500000  )

   Crystallographic axes

     site n.     atom                  positions (cryst. coord.)
         1           Cu  tau(   1) = (  0.0000000  0.0000000  0.0000000  )
         2           Pt  tau(   2) = ( -0.5000000  1.5000000 -0.5000000  )
         3           Ni  tau(   3) = ( -0.2500000  0.7500000 -0.2500000  )

     number of k points=    29  Methfessel-Paxton smearing, width (Ry)=  0.0050
                       cart. coord. in units 2pi/alat
        k(    1) = (   0.0000000   0.0000000   0.0000000), wk =   0.0039062
        k(    2) = (  -0.1250000   0.1250000  -0.1250000), wk =   0.0312500
        k(    3) = (  -0.2500000   0.2500000  -0.2500000), wk =   0.0312500
        k(    4) = (  -0.3750000   0.3750000  -0.3750000), wk =   0.0312500
        k(    5) = (   0.5000000  -0.5000000   0.5000000), wk =   0.0156250
        k(    6) = (   0.0000000   0.2500000   0.0000000), wk =   0.0234375
        k(    7) = (  -0.1250000   0.3750000  -0.1250000), wk =   0.0937500
        k(    8) = (  -0.2500000   0.5000000  -0.2500000), wk =   0.0937500
        k(    9) = (   0.6250000  -0.3750000   0.6250000), wk =   0.0937500
        k(   10) = (   0.5000000  -0.2500000   0.5000000), wk =   0.0937500
        k(   11) = (   0.3750000  -0.1250000   0.3750000), wk =   0.0937500
        k(   12) = (   0.2500000   0.0000000   0.2500000), wk =   0.0468750
        k(   13) = (   0.0000000   0.5000000   0.0000000), wk =   0.0234375
        k(   14) = (  -0.1250000   0.6250000  -0.1250000), wk =   0.0937500
        k(   15) = (   0.7500000  -0.2500000   0.7500000), wk =   0.0937500
        k(   16) = (   0.6250000  -0.1250000   0.6250000), wk =   0.0937500
        k(   17) = (   0.5000000   0.0000000   0.5000000), wk =   0.0468750
        k(   18) = (   0.0000000   0.7500000   0.0000000), wk =   0.0234375
        k(   19) = (   0.8750000  -0.1250000   0.8750000), wk =   0.0937500
        k(   20) = (   0.7500000   0.0000000   0.7500000), wk =   0.0468750
        k(   21) = (   0.0000000  -1.0000000   0.0000000), wk =   0.0117188
        k(   22) = (  -0.2500000   0.5000000   0.0000000), wk =   0.0937500
        k(   23) = (   0.6250000  -0.3750000   0.8750000), wk =   0.1875000
        k(   24) = (   0.5000000  -0.2500000   0.7500000), wk =   0.0937500
        k(   25) = (   0.7500000  -0.2500000   1.0000000), wk =   0.0937500
        k(   26) = (   0.6250000  -0.1250000   0.8750000), wk =   0.1875000
        k(   27) = (   0.5000000   0.0000000   0.7500000), wk =   0.0937500
        k(   28) = (  -0.2500000  -1.0000000   0.0000000), wk =   0.0468750
        k(   29) = (  -0.5000000  -1.0000000   0.0000000), wk =   0.0234375

                       cryst. coord.
        k(    1) = (   0.0000000   0.0000000   0.0000000), wk =   0.0039062
        k(    2) = (   0.0000000   0.0000000   0.1250000), wk =   0.0312500
        k(    3) = (   0.0000000   0.0000000   0.2500000), wk =   0.0312500
        k(    4) = (   0.0000000   0.0000000   0.3750000), wk =   0.0312500
        k(    5) = (   0.0000000   0.0000000  -0.5000000), wk =   0.0156250
        k(    6) = (   0.0000000   0.1250000   0.1250000), wk =   0.0234375
        k(    7) = (   0.0000000   0.1250000   0.2500000), wk =   0.0937500
        k(    8) = (   0.0000000   0.1250000   0.3750000), wk =   0.0937500
        k(    9) = (   0.0000000   0.1250000  -0.5000000), wk =   0.0937500
        k(   10) = (   0.0000000   0.1250000  -0.3750000), wk =   0.0937500
        k(   11) = (   0.0000000   0.1250000  -0.2500000), wk =   0.0937500
        k(   12) = (   0.0000000   0.1250000  -0.1250000), wk =   0.0468750
        k(   13) = (   0.0000000   0.2500000   0.2500000), wk =   0.0234375
        k(   14) = (   0.0000000   0.2500000   0.3750000), wk =   0.0937500
        k(   15) = (   0.0000000   0.2500000  -0.5000000), wk =   0.0937500
        k(   16) = (   0.0000000   0.2500000  -0.3750000), wk =   0.0937500
        k(   17) = (   0.0000000   0.2500000  -0.2500000), wk =   0.0468750
        k(   18) = (   0.0000000   0.3750000   0.3750000), wk =   0.0234375
        k(   19) = (   0.0000000   0.3750000  -0.5000000), wk =   0.0937500
        k(   20) = (   0.0000000   0.3750000  -0.3750000), wk =   0.0468750
        k(   21) = (   0.0000000  -0.5000000  -0.5000000), wk =   0.0117188
        k(   22) = (   0.1250000   0.2500000   0.3750000), wk =   0.0937500
        k(   23) = (   0.1250000   0.2500000  -0.5000000), wk =   0.1875000
        k(   24) = (   0.1250000   0.2500000  -0.3750000), wk =   0.0937500
        k(   25) = (   0.1250000   0.3750000  -0.5000000), wk =   0.0937500
        k(   26) = (   0.1250000   0.3750000  -0.3750000), wk =   0.1875000
        k(   27) = (   0.1250000   0.3750000  -0.2500000), wk =   0.0937500
        k(   28) = (   0.1250000  -0.5000000  -0.3750000), wk =   0.0468750
        k(   29) = (   0.2500000  -0.5000000  -0.2500000), wk =   0.0234375

     Dense  grid:    14649 G-vectors     FFT dimensions: (  36,  36,  36)

     Dynamical RAM for                 wfc:       0.84 MB

     Dynamical RAM for     wfc (w. buffer):      25.12 MB

     Dynamical RAM for           str. fact:       0.67 MB

     Dynamical RAM for           local pot:       0.00 MB

     Dynamical RAM for          nlocal pot:       1.51 MB

     Dynamical RAM for                qrad:       3.41 MB

     Dynamical RAM for          rho,v,vnew:       1.74 MB

     Dynamical RAM for               rhoin:       0.58 MB

     Dynamical RAM for            rho*nmix:       3.58 MB

     Dynamical RAM for           G-vectors:       0.95 MB

     Dynamical RAM for          h,s,v(r/c):       0.16 MB

     Dynamical RAM for          <psi|beta>:       0.02 MB

     Dynamical RAM for                 psi:       1.67 MB

     Dynamical RAM for                hpsi:       1.67 MB

     Dynamical RAM for                spsi:       1.67 MB

     Dynamical RAM for      wfcinit/wfcrot:       1.70 MB

     Dynamical RAM for           addusdens:      41.80 MB

     Estimated static dynamical RAM per process >      40.22 MB

     Estimated max dynamical RAM per process >      82.02 MB

     Check: negative core charge=   -0.000003

     Initial potential from superposition of free atoms

     starting charge   30.99935, renormalised to   31.00000
     Starting wfcs are   27 randomized atomic wfcs +    3 random wfcs
     Checking if some PAW data can be deallocated... 

     total cpu time spent up to now is        2.3 secs

     Self-consistent Calculation

     iteration #  1     ecut=    50.00 Ry     beta= 0.70
     Davidson diagonalization with overlap
     ethr =  1.00E-02,  avg # of iterations =  5.9

     total cpu time spent up to now is        6.8 secs

     total energy              =   -1144.64360724 Ry
     estimated scf accuracy    <       1.82671532 Ry

     iteration #  2     ecut=    50.00 Ry     beta= 0.70
     Davidson diagonalization with overlap
     ethr =  5.89E-03,  avg # of iterations =  2.1

     total cpu time spent up to now is       10.8 secs

     total energy              =   -1142.65005579 Ry
     estimated scf accuracy    <      46.55746247 Ry

     iteration #  3     ecut=    50.00 Ry     beta= 0.70
     Davidson diagonalization with overlap
     ethr =  5.89E-03,  avg # of iterations =  2.0

     total cpu time spent up to now is       14.4 secs

     total energy              =   -1145.97789545 Ry
     estimated scf accuracy    <       0.39851452 Ry

     iteration #  4     ecut=    50.00 Ry     beta= 0.70
     Davidson diagonalization with overlap
     ethr =  1.29E-03,  avg # of iterations =  1.4

     total cpu time spent up to now is       17.7 secs

     total energy              =   -1146.02983953 Ry
     estimated scf accuracy    <       0.04070661 Ry

     iteration #  5     ecut=    50.00 Ry     beta= 0.70
     Davidson diagonalization with overlap
     ethr =  1.31E-04,  avg # of iterations =  3.8

     total cpu time spent up to now is       21.2 secs

     total energy              =   -1146.02999619 Ry
     estimated scf accuracy    <       0.01611643 Ry

     iteration #  6     ecut=    50.00 Ry     beta= 0.70
     Davidson diagonalization with overlap
     ethr =  5.20E-05,  avg # of iterations =  3.2

     total cpu time spent up to now is       24.7 secs

     total energy              =   -1146.03221753 Ry
     estimated scf accuracy    <       0.00171967 Ry

     iteration #  7     ecut=    50.00 Ry     beta= 0.70
     Davidson diagonalization with overlap
     ethr =  5.55E-06,  avg # of iterations =  6.1

     total cpu time spent up to now is       28.7 secs

     total energy              =   -1146.03249168 Ry
     estimated scf accuracy    <       0.00122294 Ry

     iteration #  8     ecut=    50.00 Ry     beta= 0.70
     Davidson diagonalization with overlap
     ethr =  3.94E-06,  avg # of iterations =  1.2

     total cpu time spent up to now is       31.9 secs

     total energy              =   -1146.03261639 Ry
     estimated scf accuracy    <       0.00002802 Ry

     iteration #  9     ecut=    50.00 Ry     beta= 0.70
     Davidson diagonalization with overlap
     ethr =  9.04E-08,  avg # of iterations =  4.7

     total cpu time spent up to now is       36.3 secs

     total energy              =   -1146.03264048 Ry
     estimated scf accuracy    <       0.00000552 Ry

     iteration # 10     ecut=    50.00 Ry     beta= 0.70
     Davidson diagonalization with overlap
     ethr =  1.78E-08,  avg # of iterations =  1.6

     total cpu time spent up to now is       39.6 secs

     total energy              =   -1146.03264089 Ry
     estimated scf accuracy    <       0.00000043 Ry

     iteration # 11     ecut=    50.00 Ry     beta= 0.70
     Davidson diagonalization with overlap
     ethr =  1.39E-09,  avg # of iterations =  3.1

     total cpu time spent up to now is       43.2 secs

     total energy              =   -1146.03264092 Ry
     estimated scf accuracy    <       0.00000010 Ry

     iteration # 12     ecut=    50.00 Ry     beta= 0.70
     Davidson diagonalization with overlap
     ethr =  3.23E-10,  avg # of iterations =  2.8

     total cpu time spent up to now is       47.2 secs

     End of self-consistent calculation

          k = 0.0000 0.0000 0.0000 (  1837 PWs)   bands (ev):

     3.2860   7.1314   7.1314   7.6134   7.6134   7.6134   8.8856   8.8856
     8.8856  10.3277  10.3277  10.6197  10.6197  10.6197  11.1848  11.1848
    19.0565  19.0565  19.0565  21.2044  21.3675  22.0023  22.0023  22.0023
    24.2327  24.2327  24.2327  29.1107  29.1107  29.6554

     occupation numbers 
     1.0000   1.0000   1.0000   1.0000   1.0000   1.0000   1.0000   1.0000
     1.0000   1.0000   1.0000   1.0000   1.0000   1.0000   1.0194   1.0194
    -0.0000  -0.0000  -0.0000  -0.0000  -0.0000  -0.0000  -0.0000  -0.0000
    -0.0000  -0.0000  -0.0000  -0.0000  -0.0000  -0.0000

          k =-0.1250 0.1250-0.1250 (  1841 PWs)   bands (ev):

     3.5319   7.1999   7.1999   7.5658   7.6818   7.6818   8.8610   8.8610
     8.9574  10.2187  10.2187  10.3819  10.5793  10.5793  11.1977  11.1977
    17.1763  18.9916  18.9916  20.8607  21.8273  21.8273  21.9682  22.6447
    24.3781  24.3781  25.5610  29.7852  29.7852  30.8503

     occupation numbers 
     1.0000   1.0000   1.0000   1.0000   1.0000   1.0000   1.0000   1.0000
     1.0000   1.0000   1.0000   1.0000   1.0000   1.0000   1.0280   1.0280
    -0.0000  -0.0000  -0.0000  -0.0000  -0.0000  -0.0000  -0.0000  -0.0000
    -0.0000  -0.0000  -0.0000  -0.0000  -0.0000  -0.0000

          k =-0.2500 0.2500-0.2500 (  1847 PWs)   bands (ev):

     4.2368   7.3933   7.3933   7.5071   7.8499   7.8499   8.8053   8.8053
     9.0379   9.8148   9.8852   9.8852  10.5669  10.5669  11.1865  11.1865
    14.6059  18.7993  18.7993  20.2982  21.3561  21.3561  22.0637  24.0902
    25.1646  25.1646  28.7686  31.3156  31.3156  33.6596

     occupation numbers 
     1.0000   1.0000   1.0000   1.0000   1.0000   1.0000   1.0000   1.0000
     1.0000   1.0000   1.0000   1.0000   1.0000   1.0000   1.0205   1.0205
    -0.0000  -0.0000  -0.0000  -0.0000  -0.0000  -0.0000  -0.0000  -0.0000
    -0.0000  -0.0000  -0.0000  -0.0000  -0.0000  -0.0000

          k =-0.3750 0.3750-0.3750 (  1844 PWs)   bands (ev):

     5.2549   7.5059   7.6491   7.6491   8.0217   8.0217   8.6398   8.7681
     8.7681   9.4747   9.4747   9.5089  10.6021  10.6021  11.1306  11.1306
    12.6035  18.5480  18.5480  19.9095  20.9633  20.9633  21.9388  26.3673
    26.5601  26.5601  31.6126  31.6126  32.1119  33.8117

     occupation numbers 
     1.0000   1.0000   1.0000   1.0000   1.0000   1.0000   1.0000   1.0000
     1.0000   1.0000   1.0000   1.0000   1.0000   1.0000   1.0013   1.0013
    -0.0000  -0.0000  -0.0000  -0.0000  -0.0000  -0.0000  -0.0000  -0.0000
    -0.0000  -0.0000  -0.0000  -0.0000  -0.0000  -0.0000

          k = 0.5000-0.5000 0.5000 (  1850 PWs)   bands (ev):

     5.9573   7.4425   7.7885   7.7885   8.0935   8.0935   8.1973   8.7746
     8.7746   9.2541   9.2541   9.5023  10.6294  10.6294  11.0923  11.0923
    11.8130  18.4262  18.4262  19.7746  20.8323  20.8323  21.8897  27.6641
    27.6641  28.4933  30.3391  30.3391  30.5160  35.1909

     occupation numbers 
     1.0000   1.0000   1.0000   1.0000   1.0000   1.0000   1.0000   1.0000
     1.0000   1.0000   1.0000   1.0000   1.0000   1.0000   1.0001   1.0001
    -0.0000  -0.0000  -0.0000  -0.0000  -0.0000  -0.0000  -0.0000  -0.0000
    -0.0000  -0.0000  -0.0000  -0.0000  -0.0000  -0.0000

          k = 0.0000 0.2500 0.0000 (  1840 PWs)   bands (ev):

     3.6121   7.1879   7.2360   7.5262   7.7158   7.7158   8.7599   8.9596
     8.9596  10.0788  10.3080  10.5113  10.5113  10.5179  11.1038  11.2486
    17.9516  17.9516  18.2500  20.1210  21.2333  22.5919  22.5919  23.2782
    24.5177  25.4306  25.4306  29.0094  29.3844  32.1265

     occupation numbers 
     1.0000   1.0000   1.0000   1.0000   1.0000   1.0000   1.0000   1.0000
     1.0000   1.0000   1.0000   1.0000   1.0000   1.0000   1.0002   0.9742
    -0.0000  -0.0000  -0.0000  -0.0000  -0.0000  -0.0000  -0.0000  -0.0000
    -0.0000  -0.0000  -0.0000  -0.0000  -0.0000  -0.0000

          k =-0.1250 0.3750-0.1250 (  1832 PWs)   bands (ev):

     4.1590   7.2488   7.3961   7.4769   7.8476   7.8796   8.5856   9.0056
     9.0522   9.8474  10.0919  10.1426  10.5029  10.5600  11.0406  11.2639
    15.5169  17.2406  18.5810  19.2471  21.2602  22.6854  22.8696  24.1792
    25.4204  26.3270  27.7802  29.6462  30.5194  34.7527

     occupation numbers 
     1.0000   1.0000   1.0000   1.0000   1.0000   1.0000   1.0000   1.0000
     1.0000   1.0000   1.0000   1.0000   1.0000   1.0000   1.0000   0.8807
    -0.0000  -0.0000  -0.0000  -0.0000  -0.0000  -0.0000  -0.0000  -0.0000
    -0.0000  -0.0000  -0.0000  -0.0000  -0.0000  -0.0000

          k =-0.2500 0.5000-0.2500 (  1840 PWs)   bands (ev):

     5.0745   7.2983   7.5168   7.6296   8.0050   8.1261   8.4570   8.9827
     8.9911   9.5532   9.6554   9.7496  10.5647  10.5854  11.0164  11.2313
    13.2087  16.9745  17.6397  19.3462  21.8369  22.6192  23.2386  24.0306
    27.2910  27.4205  30.4742  30.9471  32.3895  33.2573

     occupation numbers 
     1.0000   1.0000   1.0000   1.0000   1.0000   1.0000   1.0000   1.0000
     1.0000   1.0000   1.0000   1.0000   1.0000   1.0000   1.0000   1.0249
    -0.0000  -0.0000  -0.0000  -0.0000  -0.0000  -0.0000  -0.0000  -0.0000
    -0.0000  -0.0000  -0.0000  -0.0000  -0.0000  -0.0000

          k = 0.6250-0.3750 0.6250 (  1831 PWs)   bands (ev):

     6.0015   7.1745   7.6302   7.7931   8.1078   8.1533   8.5846   8.7713
     8.9087   9.2525   9.3556   9.6129  10.5727  10.6424  11.0996  11.1212
    11.8762  16.8090  17.2223  19.4226  21.8813  22.1719  23.5947  25.5452
    27.8406  28.6195  30.2124  30.4299  32.9639  33.9967

     occupation numbers 
     1.0000   1.0000   1.0000   1.0000   1.0000   1.0000   1.0000   1.0000
     1.0000   1.0000   1.0000   1.0000   1.0000   1.0000   1.0001   1.0007
    -0.0000  -0.0000  -0.0000  -0.0000  -0.0000  -0.0000  -0.0000  -0.0000
    -0.0000  -0.0000  -0.0000  -0.0000  -0.0000  -0.0000

          k = 0.5000-0.2500 0.5000 (  1823 PWs)   bands (ev):

     5.7407   7.2824   7.6378   7.7366   8.1479   8.1848   8.4807   8.6862
     8.9625   9.2947   9.4032   9.6477  10.5514  10.6668  10.9885  11.2274
    12.2092  16.3435  17.9883  19.6442  21.7219  21.7974  23.7664  26.0803
    26.1082  28.2142  30.6088  32.0214  32.0531  33.7199

     occupation numbers 
     1.0000   1.0000   1.0000   1.0000   1.0000   1.0000   1.0000   1.0000
     1.0000   1.0000   1.0000   1.0000   1.0000   1.0000   1.0000   1.0300
    -0.0000  -0.0000  -0.0000  -0.0000  -0.0000  -0.0000  -0.0000  -0.0000
    -0.0000  -0.0000  -0.0000  -0.0000  -0.0000  -0.0000

          k = 0.3750-0.1250 0.3750 (  1842 PWs)   bands (ev):

     4.7422   7.3914   7.4745   7.5124   8.0028   8.0487   8.6296   8.7780
     9.0288   9.6342   9.6586   9.8892  10.5500  10.6054  10.9737  11.2966
    13.9644  16.3145  19.1637  20.1392  21.1837  21.7174  23.3294  24.5150
    24.7404  28.1412  29.5422  30.5976  32.0933  33.3340

     occupation numbers 
     1.0000   1.0000   1.0000   1.0000   1.0000   1.0000   1.0000   1.0000
     1.0000   1.0000   1.0000   1.0000   1.0000   1.0000   1.0000   0.5330
    -0.0000  -0.0000  -0.0000  -0.0000  -0.0000  -0.0000  -0.0000  -0.0000
    -0.0000  -0.0000  -0.0000  -0.0000  -0.0000  -0.0000

          k = 0.2500 0.0000 0.2500 (  1839 PWs)   bands (ev):

     3.9297   7.2994   7.3028   7.4781   7.7874   7.8271   8.7321   8.9365
     8.9912   9.9808  10.0044  10.2379  10.5334  10.5697  11.0758  11.2809
    16.1763  16.9541  20.0515  20.7487  20.9778  21.4126  22.3186  23.8914
    23.9722  26.5129  27.0149  29.1254  31.3998  32.6935

     occupation numbers 
     1.0000   1.0000   1.0000   1.0000   1.0000   1.0000   1.0000   1.0000
     1.0000   1.0000   1.0000   1.0000   1.0000   1.0000   1.0000   0.7193
    -0.0000  -0.0000  -0.0000  -0.0000  -0.0000  -0.0000  -0.0000  -0.0000
    -0.0000  -0.0000  -0.0000  -0.0000  -0.0000  -0.0000

          k = 0.0000 0.5000 0.0000 (  1828 PWs)   bands (ev):

     4.5205   7.1030   7.4484   7.5180   7.9387   7.9387   8.3550   9.1571
     9.1571   9.8213  10.2369  10.3792  10.3792  10.4496  10.9022  11.2479
    16.0083  16.0083  16.9209  17.6695  20.7037  24.1222  24.1222  26.6355
    26.8421  27.7231  27.7231  28.7412  29.4889  34.6488

     occupation numbers 
     1.0000   1.0000   1.0000   1.0000   1.0000   1.0000   1.0000   1.0000
     1.0000   1.0000   1.0000   1.0000   1.0000   1.0000   1.0000   0.9772
    -0.0000  -0.0000  -0.0000  -0.0000  -0.0000  -0.0000  -0.0000  -0.0000
    -0.0000  -0.0000  -0.0000  -0.0000  -0.0000  -0.0000

          k =-0.1250 0.6250-0.1250 (  1833 PWs)   bands (ev):

     5.2444   7.0428   7.3357   7.7091   8.0657   8.0881   8.3136   9.1815
     9.2040   9.7584   9.9638  10.1553  10.4647  10.5714  10.8984  11.2505
    13.9494  15.3604  15.6659  18.3144  21.0744  24.4189  24.6035  26.8257
    28.5176  28.5330  29.3310  29.7966  31.3443  33.1920

     occupation numbers 
     1.0000   1.0000   1.0000   1.0000   1.0000   1.0000   1.0000   1.0000
     1.0000   1.0000   1.0000   1.0000   1.0000   1.0000   1.0000   0.9654
    -0.0000  -0.0000  -0.0000  -0.0000  -0.0000  -0.0000  -0.0000  -0.0000
    -0.0000  -0.0000  -0.0000  -0.0000  -0.0000  -0.0000

          k = 0.7500-0.2500 0.7500 (  1821 PWs)   bands (ev):

     6.1145   6.9469   7.3107   7.8336   7.9978   8.2652   8.6022   9.0661
     9.2890   9.4979   9.5859   9.9828  10.4284  10.7127  11.1221  11.2291
    12.0887  14.6644  15.4737  18.8917  22.5126  24.1786  24.3441  26.5617
    28.2113  28.9250  30.0851  30.9642  32.7358  33.7990

     occupation numbers 
     1.0000   1.0000   1.0000   1.0000   1.0000   1.0000   1.0000   1.0000
     1.0000   1.0000   1.0000   1.0000   1.0000   1.0000   1.0007   1.0281
    -0.0000  -0.0000  -0.0000  -0.0000  -0.0000  -0.0000  -0.0000  -0.0000
    -0.0000  -0.0000  -0.0000  -0.0000  -0.0000  -0.0000

          k = 0.6250-0.1250 0.6250 (  1820 PWs)   bands (ev):

     6.3330   6.9761   7.5075   7.8245   7.8371   8.4234   8.7441   8.8770
     9.1133   9.2949   9.5832   9.7676  10.4384  10.6500  11.1275  11.2935
    12.0414  14.0142  16.3162  19.2087  23.3738  23.9101  24.8290  26.0306
    26.0471  27.6777  31.0978  31.9502  33.4832  34.1593

     occupation numbers 
     1.0000   1.0000   1.0000   1.0000   1.0000   1.0000   1.0000   1.0000
     1.0000   1.0000   1.0000   1.0000   1.0000   1.0000   1.0010   0.5710
    -0.0000  -0.0000  -0.0000  -0.0000  -0.0000  -0.0000  -0.0000  -0.0000
    -0.0000  -0.0000  -0.0000  -0.0000  -0.0000  -0.0000

          k = 0.5000 0.0000 0.5000 (  1829 PWs)   bands (ev):

     5.5543   7.2609   7.4853   7.6969   8.1347   8.2931   8.5728   8.6343
     9.0784   9.3325   9.5794   9.8489  10.4937  10.6567  10.9066  11.3418
    13.5259  14.0523  17.6638  19.5823  22.9687  23.1192  23.5372  24.5355
    26.8835  28.0276  29.7324  31.9061  32.4739  33.6996

     occupation numbers 
     1.0000   1.0000   1.0000   1.0000   1.0000   1.0000   1.0000   1.0000
     1.0000   1.0000   1.0000   1.0000   1.0000   1.0000   1.0000   0.0688
    -0.0000  -0.0000  -0.0000  -0.0000  -0.0000  -0.0000  -0.0000  -0.0000
    -0.0000  -0.0000  -0.0000  -0.0000  -0.0000  -0.0000

          k = 0.0000 0.7500 0.0000 (  1808 PWs)   bands (ev):

     5.6816   6.8519   7.2181   7.8643   8.1212   8.1212   8.3047   9.2425
     9.2425   9.8771  10.0887  10.3484  10.7122  10.7219  10.7219  11.2913
    13.9533  14.1989  14.1989  17.4380  20.5116  26.3315  26.3315  28.4387
    29.2451  29.5807  29.8993  29.8993  31.2006  33.0345

     occupation numbers 
     1.0000   1.0000   1.0000   1.0000   1.0000   1.0000   1.0000   1.0000
     1.0000   1.0000   1.0000   1.0000   1.0000   1.0000   1.0000   0.5984
    -0.0000  -0.0000  -0.0000  -0.0000  -0.0000  -0.0000  -0.0000  -0.0000
    -0.0000  -0.0000  -0.0000  -0.0000  -0.0000  -0.0000

          k = 0.8750-0.1250 0.8750 (  1812 PWs)   bands (ev):

     6.1990   6.7516   7.2525   7.9367   8.0171   8.2695   8.4800   9.1386
     9.3587   9.8529   9.9615  10.2562  10.3879  11.0594  11.1674  11.4431
    12.5095  13.1532  13.9625  18.0673  20.9359  26.5302  26.6248  28.3564
    28.6810  29.8170  30.4129  31.3781  32.3547  32.4107

     occupation numbers 
     1.0000   1.0000   1.0000   1.0000   1.0000   1.0000   1.0000   1.0000
     1.0000   1.0000   1.0000   1.0000   1.0000   1.0000   1.0097  -0.0054
    -0.0000  -0.0000  -0.0000  -0.0000  -0.0000  -0.0000  -0.0000  -0.0000
    -0.0000  -0.0000  -0.0000  -0.0000  -0.0000  -0.0000

          k = 0.7500 0.0000 0.7500 (  1822 PWs)   bands (ev):

     6.5918   6.7362   7.4315   7.6820   7.8902   8.4886   8.6520   8.9495
     9.4982   9.6622   9.7219  10.1018  10.3173  11.0034  11.3090  11.3170
    12.0394  12.5409  14.8303  18.7802  22.4568  26.0106  26.1343  26.1742
    26.4504  30.0715  30.8356  31.4837  32.9336  33.6721

     occupation numbers 
     1.0000   1.0000   1.0000   1.0000   1.0000   1.0000   1.0000   1.0000
     1.0000   1.0000   1.0000   1.0000   1.0000   1.0000   0.3794   0.2865
    -0.0000  -0.0000  -0.0000  -0.0000  -0.0000  -0.0000  -0.0000  -0.0000
    -0.0000  -0.0000  -0.0000  -0.0000  -0.0000  -0.0000

          k = 0.0000-1.0000 0.0000 (  1804 PWs)   bands (ev):

     6.2325   6.6121   7.3206   8.0409   8.1872   8.1872   8.4034   9.2088
     9.2088   9.9641   9.9805  10.2641  10.6468  11.2371  11.2371  11.6762
    12.2264  13.2260  13.2260  17.3978  20.4653  28.2685  28.2685  28.3037
    29.4375  30.1439  30.1439  31.3918  31.6311  31.6311

     occupation numbers 
     1.0000   1.0000   1.0000   1.0000   1.0000   1.0000   1.0000   1.0000
     1.0000   1.0000   1.0000   1.0000   1.0000   1.0136   1.0136  -0.0000
    -0.0000  -0.0000  -0.0000  -0.0000  -0.0000  -0.0000  -0.0000  -0.0000
    -0.0000  -0.0000  -0.0000  -0.0000  -0.0000  -0.0000

          k =-0.2500 0.5000 0.0000 (  1839 PWs)   bands (ev):

     4.8066   7.2145   7.4206   7.5993   8.0040   8.0680   8.3946   9.0224
     9.1112   9.7333   9.7975  10.0312  10.5194  10.5806  10.9149  11.2918
    14.6817  15.2923  17.4964  19.7119  21.4189  22.2244  24.2739  25.1327
    26.0107  28.6689  29.3018  29.5510  31.3175  33.3010

     occupation numbers 
     1.0000   1.0000   1.0000   1.0000   1.0000   1.0000   1.0000   1.0000
     1.0000   1.0000   1.0000   1.0000   1.0000   1.0000   1.0000   0.5922
    -0.0000  -0.0000  -0.0000  -0.0000  -0.0000  -0.0000  -0.0000  -0.0000
    -0.0000  -0.0000  -0.0000  -0.0000  -0.0000  -0.0000

          k = 0.6250-0.3750 0.8750 (  1825 PWs)   bands (ev):

     5.7126   7.1645   7.3717   7.8047   8.1234   8.1657   8.5351   8.9015
     9.1535   9.3906   9.5722   9.8680  10.4704  10.6856  10.9643  11.2868
    12.7671  14.9125  16.3492  20.2861  21.5229  22.9424  24.6126  25.7619
    27.1268  28.2795  30.3298  31.3004  32.5839  33.2362

     occupation numbers 
     1.0000   1.0000   1.0000   1.0000   1.0000   1.0000   1.0000   1.0000
     1.0000   1.0000   1.0000   1.0000   1.0000   1.0000   1.0000   0.6517
    -0.0000  -0.0000  -0.0000  -0.0000  -0.0000  -0.0000  -0.0000  -0.0000
    -0.0000  -0.0000  -0.0000  -0.0000  -0.0000  -0.0000

          k = 0.5000-0.2500 0.7500 (  1826 PWs)   bands (ev):

     6.3604   6.9168   7.4653   7.8018   8.1082   8.2315   8.7816   8.8213
     9.1093   9.2424   9.5393   9.7385  10.4431  10.7761  11.0876  11.2393
    11.7480  15.1043  15.7041  20.3295  21.4152  24.3868  24.7589  25.6839
    26.3939  28.8055  29.9303  33.0191  33.1426  33.4952

     occupation numbers 
     1.0000   1.0000   1.0000   1.0000   1.0000   1.0000   1.0000   1.0000
     1.0000   1.0000   1.0000   1.0000   1.0000   1.0000   1.0000   1.0080
    -0.0000  -0.0000  -0.0000  -0.0000  -0.0000  -0.0000  -0.0000  -0.0000
    -0.0000  -0.0000  -0.0000  -0.0000  -0.0000  -0.0000

          k = 0.7500-0.2500 1.0000 (  1821 PWs)   bands (ev):

     5.9133   6.9670   7.1934   7.8444   8.0553   8.2370   8.4533   9.1398
     9.2953   9.7149   9.8265  10.0874  10.3918  10.7873  11.0371  11.3053
    13.3103  13.7362  14.5387  19.0772  21.2981  23.9052  26.5326  27.7135
    28.4863  28.6934  29.7443  31.3813  32.1642  33.1088

     occupation numbers 
     1.0000   1.0000   1.0000   1.0000   1.0000   1.0000   1.0000   1.0000
     1.0000   1.0000   1.0000   1.0000   1.0000   1.0000   1.0000   0.4249
    -0.0000  -0.0000  -0.0000  -0.0000  -0.0000  -0.0000  -0.0000  -0.0000
    -0.0000  -0.0000  -0.0000  -0.0000  -0.0000  -0.0000

          k = 0.6250-0.1250 0.8750 (  1826 PWs)   bands (ev):

     6.5236   6.8490   7.2950   7.6733   8.0794   8.4389   8.6350   9.0092
     9.2805   9.5855   9.6814  10.0289  10.3349  11.0819  11.2970  11.4144
    11.8560  13.3288  14.1477  20.0154  22.5315  23.3682  25.4725  26.9805
    28.7996  29.2208  30.2154  31.8787  32.6590  32.9913

     occupation numbers 
     1.0000   1.0000   1.0000   1.0000   1.0000   1.0000   1.0000   1.0000
     1.0000   1.0000   1.0000   1.0000   1.0000   1.0000   0.5272  -0.0189
    -0.0000  -0.0000  -0.0000  -0.0000  -0.0000  -0.0000  -0.0000  -0.0000
    -0.0000  -0.0000  -0.0000  -0.0000  -0.0000  -0.0000

          k = 0.5000 0.0000 0.7500 (  1829 PWs)   bands (ev):

     6.3902   6.9823   7.3321   7.6911   8.1258   8.4098   8.6780   8.8754
     9.1124   9.5313   9.6196   9.9086  10.3641  10.8004  11.1625  11.3487
    12.6512  12.9601  15.0689  20.5747  22.3327  23.3872  25.0605  26.4728
    27.3121  29.2029  29.6977  32.3336  32.7394  34.2780

     occupation numbers 
     1.0000   1.0000   1.0000   1.0000   1.0000   1.0000   1.0000   1.0000
     1.0000   1.0000   1.0000   1.0000   1.0000   1.0000   1.0077   0.0310
    -0.0000  -0.0000  -0.0000  -0.0000  -0.0000  -0.0000  -0.0000  -0.0000
    -0.0000  -0.0000  -0.0000  -0.0000  -0.0000  -0.0000

          k =-0.2500-1.0000 0.0000 (  1810 PWs)   bands (ev):

     6.4181   6.7422   7.3367   7.7812   8.0004   8.4147   8.5288   9.1266
     9.4508   9.8251   9.9062  10.0326  10.3200  11.2677  11.3481  11.7729
    12.1282  12.8621  13.0991  18.8969  21.2367  25.7810  26.0516  28.7606
    28.9733  29.8076  30.8834  31.3023  32.2408  32.7308

     occupation numbers 
     1.0000   1.0000   1.0000   1.0000   1.0000   1.0000   1.0000   1.0000
     1.0000   1.0000   1.0000   1.0000   1.0000   0.8493   0.0339  -0.0000
    -0.0000  -0.0000  -0.0000  -0.0000  -0.0000  -0.0000  -0.0000  -0.0000
    -0.0000  -0.0000  -0.0000  -0.0000  -0.0000  -0.0000

          k =-0.5000-1.0000 0.0000 (  1800 PWs)   bands (ev):

     6.6148   6.9802   7.3613   7.3855   8.3263   8.4717   8.5954   9.0436
     9.0593   9.6167   9.7041  10.1032  10.3241  11.2764  11.4420  12.0595
    12.1635  12.2159  13.0400  22.0231  22.1102  22.8479  23.7027  29.0522
    29.3785  29.7502  31.1150  31.1345  31.4753  32.1680

     occupation numbers 
     1.0000   1.0000   1.0000   1.0000   1.0000   1.0000   1.0000   1.0000
     1.0000   1.0000   1.0000   1.0000   1.0000   0.7665  -0.0057  -0.0000
    -0.0000  -0.0000  -0.0000  -0.0000  -0.0000  -0.0000  -0.0000  -0.0000
    -0.0000  -0.0000  -0.0000  -0.0000  -0.0000  -0.0000

     the Fermi energy is    11.2992 ev

!    total energy              =   -1146.03264095 Ry

     total all-electron energy =    -43178.992020 Ry
     estimated scf accuracy    <          7.6E-09 Ry
     smearing contrib. (-TS)   =      -0.00046323 Ry
     internal energy E=F+TS    =   -1146.03217772 Ry

     The total energy is F=E-TS. E is the sum of the following terms:
     one-electron contribution =     -54.13240282 Ry
     hartree contribution      =      69.29562048 Ry
     xc contribution           =    -110.15534736 Ry
     ewald contribution        =    -191.42944562 Ry
     one-center paw contrib.   =    -859.61060241 Ry
      -> PAW hartree energy AE =     230.94737137 Ry
      -> PAW hartree energy PS =    -229.87287728 Ry
      -> PAW xc energy AE      =    -970.70439809 Ry
      -> PAW xc energy PS      =     110.01930160 Ry
      -> total E_H with PAW    =      70.37011457 Ry
      -> total E_XC with PAW   =    -970.84044384 Ry

     convergence has been achieved in  12 iterations

     Writing output data file ././CuPtNi.save/

     init_run     :      2.91s CPU      2.09s WALL (       1 calls)
     electrons    :     74.33s CPU     44.95s WALL (       1 calls)

     Called by init_run:
     wfcinit      :      1.74s CPU      0.98s WALL (       1 calls)
     wfcinit:atom :      0.03s CPU      0.02s WALL (      29 calls)
     wfcinit:wfcr :      1.63s CPU      0.92s WALL (      29 calls)
     potinit      :      0.35s CPU      0.36s WALL (       1 calls)
     hinit0       :      0.69s CPU      0.65s WALL (       1 calls)

     Called by electrons:
     c_bands      :     55.75s CPU     31.83s WALL (      12 calls)
     sum_band     :     12.38s CPU      7.59s WALL (      12 calls)
     v_of_rho     :      0.41s CPU      0.26s WALL (      13 calls)
     v_h          :      0.02s CPU      0.01s WALL (      13 calls)
     v_xc         :      0.40s CPU      0.25s WALL (      13 calls)
     newd         :      1.23s CPU      1.01s WALL (      13 calls)
     PAW_pot      :      4.88s CPU      4.61s WALL (      13 calls)
     mix_rho      :      0.07s CPU      0.04s WALL (      12 calls)

     Called by c_bands:
     init_us_2    :      1.25s CPU      0.63s WALL (     725 calls)
     cegterg      :     51.17s CPU     29.28s WALL (     348 calls)

     Called by sum_band:
     sum_band:wei :      0.02s CPU      0.01s WALL (      12 calls)
     sum_band:loo :     10.12s CPU      6.24s WALL (      12 calls)
     sum_band:buf :      0.06s CPU      0.03s WALL (     348 calls)
     sum_band:ini :      0.56s CPU      0.30s WALL (     348 calls)
     sum_band:cal :      0.32s CPU      0.32s WALL (     348 calls)
     sum_band:bec :      0.01s CPU      0.01s WALL (     348 calls)
     addusdens    :      2.19s CPU      1.30s WALL (      12 calls)
     addusd:skk   :      0.00s CPU      0.00s WALL (      36 calls)
     addusd:dgemm :      1.20s CPU      0.54s WALL (      36 calls)
     addusd:qvan2 :      0.86s CPU      0.59s WALL (      36 calls)

     Called by *egterg:
     cdiaghg      :      2.80s CPU      1.24s WALL (    1449 calls)
     cegterg:over :      1.12s CPU      0.47s WALL (    1101 calls)
     cegterg:upda :      0.89s CPU      0.37s WALL (    1101 calls)
     cegterg:last :      1.44s CPU      0.55s WALL (     680 calls)
     h_psi        :     44.59s CPU     26.73s WALL (    1478 calls)
     s_psi        :      0.73s CPU      0.35s WALL (    1478 calls)
     g_psi        :      0.43s CPU      0.16s WALL (    1101 calls)

     Called by h_psi:
     h_psi:calbec :      0.82s CPU      0.66s WALL (    1478 calls)
     vloc_psi     :     42.74s CPU     25.57s WALL (    1478 calls)
     add_vuspsi   :      0.75s CPU      0.38s WALL (    1478 calls)

     General routines
     calbec       :      1.13s CPU      0.98s WALL (    1826 calls)
     fft          :      0.18s CPU      0.12s WALL (     143 calls)
     ffts         :      0.02s CPU      0.01s WALL (      12 calls)
     fftw         :     44.76s CPU     26.88s WALL (   62268 calls)

     Parallel routines

     PAW routines
     PAW_pot      :      4.88s CPU      4.61s WALL (      13 calls)
     PAW_symme    :      0.01s CPU      0.01s WALL (      25 calls)

     PWSCF        :   1m17.49s CPU     47.37s WALL


   This run was terminated on:  12:59:25  22May2024            

=------------------------------------------------------------------------------=
   JOB DONE.
=------------------------------------------------------------------------------=
