
     Program PWSCF v.6.7MaX starts on 22May2024 at 13:19:37 

     This program is part of the open-source Quantum ESPRESSO suite
     for quantum simulation of materials; please cite
         "P. Giannozzi et al., J. Phys.:Condens. Matter 21 395502 (2009);
         "P. Giannozzi et al., J. Phys.:Condens. Matter 29 465901 (2017);
          URL http://www.quantum-espresso.org", 
     in publications or presentations arising from this work. More details at
     http://www.quantum-espresso.org/quote

     Parallel version (MPI), running on     1 processors

     MPI processes distributed on     1 nodes
     Waiting for input...
     Reading input from standard input
Warning: card EOF ignored

     Current dimensions of program PWSCF are:
     Max number of different atomic species (ntypx) = 10
     Max number of k-points (npk) =  40000
     Max angular momentum in pseudopotentials (lmaxx) =  3
     file Cu.UPF: wavefunction(s)  4S 3D renormalized
     file Pt.UPF: wavefunction(s)  6S 5D renormalized
     file Ni.UPF: wavefunction(s)  4S 3D renormalized

     Subspace diagonalization in iterative solution of the eigenvalue problem:
     a serial algorithm will be used


     G-vector sticks info
     --------------------
     sticks:   dense  smooth     PW     G-vecs:    dense   smooth      PW
     Sum         769     769    241                14331    14331    2445



     bravais-lattice index     =            2
     lattice parameter (alat)  =      10.6600  a.u.
     unit-cell volume          =     302.8389 (a.u.)^3
     number of atoms/cell      =            3
     number of atomic types    =            3
     number of electrons       =        31.00
     number of Kohn-Sham states=           30
     kinetic-energy cutoff     =      50.0000  Ry
     charge density cutoff     =     200.0000  Ry
     scf convergence threshold =      1.0E-07
     mixing beta               =       0.7000
     number of iterations used =            8  plain     mixing
     Exchange-correlation= SLA  PW   PBX  PBC
                           (   1   4   3   4   0   0   0)

     celldm(1)=  10.660000  celldm(2)=   0.000000  celldm(3)=   0.000000
     celldm(4)=   0.000000  celldm(5)=   0.000000  celldm(6)=   0.000000

     crystal axes: (cart. coord. in units of alat)
               a(1) = (  -0.500000   0.000000   0.500000 )  
               a(2) = (   0.000000   0.500000   0.500000 )  
               a(3) = (  -0.500000   0.500000   0.000000 )  

     reciprocal axes: (cart. coord. in units 2 pi/alat)
               b(1) = ( -1.000000 -1.000000  1.000000 )  
               b(2) = (  1.000000  1.000000  1.000000 )  
               b(3) = ( -1.000000  1.000000 -1.000000 )  


     PseudoPot. # 1 for Cu read from file:
     ././Cu.UPF
     MD5 check sum: cfffd1f38ee05704b3e17f46f1730a6f
     Pseudo is Projector augmented-wave + core cor, Zval = 11.0
     Generated using &quot;atomic&quot; code by A. Dal Corso  v.6.3
     Shape of augmentation charge: PSQ
     Using radial grid of 1199 points,  6 beta functions with: 
                l(1) =   0
                l(2) =   0
                l(3) =   1
                l(4) =   1
                l(5) =   2
                l(6) =   2
     Q(r) pseudized with 0 coefficients 


     PseudoPot. # 2 for Pt read from file:
     ././Pt.UPF
     MD5 check sum: c5224e9cd7a5e36e81f2def9f50bb494
     Pseudo is Projector augmented-wave + core cor, Zval = 10.0
     Generated using &quot;atomic&quot; code by A. Dal Corso  v.6.3
     Shape of augmentation charge: PSQ
     Using radial grid of 1277 points,  6 beta functions with: 
                l(1) =   0
                l(2) =   0
                l(3) =   1
                l(4) =   1
                l(5) =   2
                l(6) =   2
     Q(r) pseudized with 0 coefficients 


     PseudoPot. # 3 for Ni read from file:
     ././Ni.UPF
     MD5 check sum: 5bc40517020091042a126ac2b4ecef1e
     Pseudo is Projector augmented-wave + core cor, Zval = 10.0
     Generated using "atomic" code by A. Dal Corso  v.5.0.2 svn rev. 9415
     Shape of augmentation charge: PSQ
     Using radial grid of 1195 points,  6 beta functions with: 
                l(1) =   0
                l(2) =   0
                l(3) =   1
                l(4) =   1
                l(5) =   2
                l(6) =   2
     Q(r) pseudized with 0 coefficients 


     atomic species   valence    mass     pseudopotential
        Cu            11.00    63.54600     Cu( 1.00)
        Pt            10.00   195.08000     Pt( 1.00)
        Ni            10.00    58.69000     Ni( 1.00)

     24 Sym. Ops. (no inversion) found


                                    s                        frac. trans.

      isym =  1     identity                                     

 cryst.   s( 1) = (     1          0          0      )
                  (     0          1          0      )
                  (     0          0          1      )

 cart.    s( 1) = (  1.0000000  0.0000000  0.0000000 )
                  (  0.0000000  1.0000000  0.0000000 )
                  (  0.0000000  0.0000000  1.0000000 )


      isym =  2     180 deg rotation - cart. axis [0,0,1]        

 cryst.   s( 2) = (     0          1         -1      )
                  (     1          0         -1      )
                  (     0          0         -1      )

 cart.    s( 2) = ( -1.0000000  0.0000000  0.0000000 )
                  (  0.0000000 -1.0000000  0.0000000 )
                  (  0.0000000  0.0000000  1.0000000 )


      isym =  3     180 deg rotation - cart. axis [0,1,0]        

 cryst.   s( 3) = (    -1          0          0      )
                  (    -1          0          1      )
                  (    -1          1          0      )

 cart.    s( 3) = ( -1.0000000  0.0000000  0.0000000 )
                  (  0.0000000  1.0000000  0.0000000 )
                  (  0.0000000  0.0000000 -1.0000000 )


      isym =  4     180 deg rotation - cart. axis [1,0,0]        

 cryst.   s( 4) = (     0         -1          1      )
                  (     0         -1          0      )
                  (     1         -1          0      )

 cart.    s( 4) = (  1.0000000  0.0000000  0.0000000 )
                  (  0.0000000 -1.0000000  0.0000000 )
                  (  0.0000000  0.0000000 -1.0000000 )


      isym =  5     120 deg rotation - cart. axis [-1,-1,-1]     

 cryst.   s( 5) = (    -1          0          1      )
                  (    -1          1          0      )
                  (    -1          0          0      )

 cart.    s( 5) = (  0.0000000  1.0000000  0.0000000 )
                  (  0.0000000  0.0000000  1.0000000 )
                  (  1.0000000  0.0000000  0.0000000 )


      isym =  6     120 deg rotation - cart. axis [-1,1,1]       

 cryst.   s( 6) = (     0          1          0      )
                  (     0          0          1      )
                  (     1          0          0      )

 cart.    s( 6) = (  0.0000000 -1.0000000  0.0000000 )
                  (  0.0000000  0.0000000  1.0000000 )
                  ( -1.0000000  0.0000000  0.0000000 )


      isym =  7     120 deg rotation - cart. axis [1,1,-1]       

 cryst.   s( 7) = (     1          0         -1      )
                  (     0          0         -1      )
                  (     0          1         -1      )

 cart.    s( 7) = (  0.0000000  1.0000000  0.0000000 )
                  (  0.0000000  0.0000000 -1.0000000 )
                  ( -1.0000000  0.0000000  0.0000000 )


      isym =  8     120 deg rotation - cart. axis [1,-1,1]       

 cryst.   s( 8) = (     0         -1          0      )
                  (     1         -1          0      )
                  (     0         -1          1      )

 cart.    s( 8) = (  0.0000000 -1.0000000  0.0000000 )
                  (  0.0000000  0.0000000 -1.0000000 )
                  (  1.0000000  0.0000000  0.0000000 )


      isym =  9     120 deg rotation - cart. axis [1,1,1]        

 cryst.   s( 9) = (     0          0         -1      )
                  (     0          1         -1      )
                  (     1          0         -1      )

 cart.    s( 9) = (  0.0000000  0.0000000  1.0000000 )
                  (  1.0000000  0.0000000  0.0000000 )
                  (  0.0000000  1.0000000  0.0000000 )


      isym = 10     120 deg rotation - cart. axis [-1,1,-1]      

 cryst.   s(10) = (    -1          1          0      )
                  (    -1          0          0      )
                  (    -1          0          1      )

 cart.    s(10) = (  0.0000000  0.0000000  1.0000000 )
                  ( -1.0000000  0.0000000  0.0000000 )
                  (  0.0000000 -1.0000000  0.0000000 )


      isym = 11     120 deg rotation - cart. axis [1,-1,-1]      

 cryst.   s(11) = (     0          0          1      )
                  (     1          0          0      )
                  (     0          1          0      )

 cart.    s(11) = (  0.0000000  0.0000000 -1.0000000 )
                  ( -1.0000000  0.0000000  0.0000000 )
                  (  0.0000000  1.0000000  0.0000000 )


      isym = 12     120 deg rotation - cart. axis [-1,-1,1]      

 cryst.   s(12) = (     1         -1          0      )
                  (     0         -1          1      )
                  (     0         -1          0      )

 cart.    s(12) = (  0.0000000  0.0000000 -1.0000000 )
                  (  1.0000000  0.0000000  0.0000000 )
                  (  0.0000000 -1.0000000  0.0000000 )


      isym = 13     inv. 180 deg rotation - cart. axis [1,1,0]   

 cryst.   s(13) = (     0          1          0      )
                  (     1          0          0      )
                  (     0          0          1      )

 cart.    s(13) = (  0.0000000 -1.0000000  0.0000000 )
                  ( -1.0000000  0.0000000  0.0000000 )
                  (  0.0000000  0.0000000  1.0000000 )


      isym = 14     inv. 180 deg rotation - cart. axis [1,-1,0]  

 cryst.   s(14) = (     1          0         -1      )
                  (     0          1         -1      )
                  (     0          0         -1      )

 cart.    s(14) = (  0.0000000  1.0000000  0.0000000 )
                  (  1.0000000  0.0000000  0.0000000 )
                  (  0.0000000  0.0000000  1.0000000 )


      isym = 15     inv.  90 deg rotation - cart. axis [0,0,-1]  

 cryst.   s(15) = (     0         -1          0      )
                  (     0         -1          1      )
                  (     1         -1          0      )

 cart.    s(15) = (  0.0000000 -1.0000000  0.0000000 )
                  (  1.0000000  0.0000000  0.0000000 )
                  (  0.0000000  0.0000000 -1.0000000 )


      isym = 16     inv.  90 deg rotation - cart. axis [0,0,1]   

 cryst.   s(16) = (    -1          0          1      )
                  (    -1          0          0      )
                  (    -1          1          0      )

 cart.    s(16) = (  0.0000000  1.0000000  0.0000000 )
                  ( -1.0000000  0.0000000  0.0000000 )
                  (  0.0000000  0.0000000 -1.0000000 )


      isym = 17     inv. 180 deg rotation - cart. axis [1,0,1]   

 cryst.   s(17) = (     1          0          0      )
                  (     0          0          1      )
                  (     0          1          0      )

 cart.    s(17) = (  0.0000000  0.0000000 -1.0000000 )
                  (  0.0000000  1.0000000  0.0000000 )
                  ( -1.0000000  0.0000000  0.0000000 )


      isym = 18     inv. 180 deg rotation - cart. axis [-1,0,1]  

 cryst.   s(18) = (    -1          0          0      )
                  (    -1          1          0      )
                  (    -1          0          1      )

 cart.    s(18) = (  0.0000000  0.0000000  1.0000000 )
                  (  0.0000000  1.0000000  0.0000000 )
                  (  1.0000000  0.0000000  0.0000000 )


      isym = 19     inv.  90 deg rotation - cart. axis [0,1,0]   

 cryst.   s(19) = (     0         -1          1      )
                  (     1         -1          0      )
                  (     0         -1          0      )

 cart.    s(19) = (  0.0000000  0.0000000 -1.0000000 )
                  (  0.0000000 -1.0000000  0.0000000 )
                  (  1.0000000  0.0000000  0.0000000 )


      isym = 20     inv.  90 deg rotation - cart. axis [0,-1,0]  

 cryst.   s(20) = (     0          1         -1      )
                  (     0          0         -1      )
                  (     1          0         -1      )

 cart.    s(20) = (  0.0000000  0.0000000  1.0000000 )
                  (  0.0000000 -1.0000000  0.0000000 )
                  ( -1.0000000  0.0000000  0.0000000 )


      isym = 21     inv. 180 deg rotation - cart. axis [0,1,1]   

 cryst.   s(21) = (     1         -1          0      )
                  (     0         -1          0      )
                  (     0         -1          1      )

 cart.    s(21) = (  1.0000000  0.0000000  0.0000000 )
                  (  0.0000000  0.0000000 -1.0000000 )
                  (  0.0000000 -1.0000000  0.0000000 )


      isym = 22     inv. 180 deg rotation - cart. axis [0,1,-1]  

 cryst.   s(22) = (     0          0          1      )
                  (     0          1          0      )
                  (     1          0          0      )

 cart.    s(22) = (  1.0000000  0.0000000  0.0000000 )
                  (  0.0000000  0.0000000  1.0000000 )
                  (  0.0000000  1.0000000  0.0000000 )


      isym = 23     inv.  90 deg rotation - cart. axis [-1,0,0]  

 cryst.   s(23) = (     0          0         -1      )
                  (     1          0         -1      )
                  (     0          1         -1      )

 cart.    s(23) = ( -1.0000000  0.0000000  0.0000000 )
                  (  0.0000000  0.0000000 -1.0000000 )
                  (  0.0000000  1.0000000  0.0000000 )


      isym = 24     inv.  90 deg rotation - cart. axis [1,0,0]   

 cryst.   s(24) = (    -1          1          0      )
                  (    -1          0          1      )
                  (    -1          0          0      )

 cart.    s(24) = ( -1.0000000  0.0000000  0.0000000 )
                  (  0.0000000  0.0000000  1.0000000 )
                  (  0.0000000 -1.0000000  0.0000000 )


     point group T_d (-43m) 
     there are  5 classes
     the character table:

       E     8C3   3C2   6S4   6s_d 
A_1    1.00  1.00  1.00  1.00  1.00
A_2    1.00  1.00  1.00 -1.00 -1.00
E      2.00 -1.00  2.00  0.00  0.00
T_1    3.00  0.00 -1.00  1.00 -1.00
T_2    3.00  0.00 -1.00 -1.00  1.00

     the symmetry operations in each class and the name of the first element:

     E        1
          identity                                               
     8C3      5    7    8    6   12    9   10   11
          120 deg rotation - cart. axis [-1,-1,-1]               
     3C2      2    3    4
          180 deg rotation - cart. axis [0,0,1]                  
     6S4     15   16   20   19   23   24
          inv.  90 deg rotation - cart. axis [0,0,-1]            
     6s_d    13   14   17   18   21   22
          inv. 180 deg rotation - cart. axis [1,1,0]             

   Cartesian axes

     site n.     atom                  positions (alat units)
         1           Cu  tau(   1) = (   0.0000000   0.0000000   0.0000000  )
         2           Pt  tau(   2) = (   0.5000000   0.5000000   0.5000000  )
         3           Ni  tau(   3) = (   0.2500000   0.2500000   0.2500000  )

   Crystallographic axes

     site n.     atom                  positions (cryst. coord.)
         1           Cu  tau(   1) = (  0.0000000  0.0000000  0.0000000  )
         2           Pt  tau(   2) = ( -0.5000000  1.5000000 -0.5000000  )
         3           Ni  tau(   3) = ( -0.2500000  0.7500000 -0.2500000  )

     number of k points=    29  Methfessel-Paxton smearing, width (Ry)=  0.0050
                       cart. coord. in units 2pi/alat
        k(    1) = (   0.0000000   0.0000000   0.0000000), wk =   0.0039062
        k(    2) = (  -0.1250000   0.1250000  -0.1250000), wk =   0.0312500
        k(    3) = (  -0.2500000   0.2500000  -0.2500000), wk =   0.0312500
        k(    4) = (  -0.3750000   0.3750000  -0.3750000), wk =   0.0312500
        k(    5) = (   0.5000000  -0.5000000   0.5000000), wk =   0.0156250
        k(    6) = (   0.0000000   0.2500000   0.0000000), wk =   0.0234375
        k(    7) = (  -0.1250000   0.3750000  -0.1250000), wk =   0.0937500
        k(    8) = (  -0.2500000   0.5000000  -0.2500000), wk =   0.0937500
        k(    9) = (   0.6250000  -0.3750000   0.6250000), wk =   0.0937500
        k(   10) = (   0.5000000  -0.2500000   0.5000000), wk =   0.0937500
        k(   11) = (   0.3750000  -0.1250000   0.3750000), wk =   0.0937500
        k(   12) = (   0.2500000   0.0000000   0.2500000), wk =   0.0468750
        k(   13) = (   0.0000000   0.5000000   0.0000000), wk =   0.0234375
        k(   14) = (  -0.1250000   0.6250000  -0.1250000), wk =   0.0937500
        k(   15) = (   0.7500000  -0.2500000   0.7500000), wk =   0.0937500
        k(   16) = (   0.6250000  -0.1250000   0.6250000), wk =   0.0937500
        k(   17) = (   0.5000000   0.0000000   0.5000000), wk =   0.0468750
        k(   18) = (   0.0000000   0.7500000   0.0000000), wk =   0.0234375
        k(   19) = (   0.8750000  -0.1250000   0.8750000), wk =   0.0937500
        k(   20) = (   0.7500000   0.0000000   0.7500000), wk =   0.0468750
        k(   21) = (   0.0000000  -1.0000000   0.0000000), wk =   0.0117188
        k(   22) = (  -0.2500000   0.5000000   0.0000000), wk =   0.0937500
        k(   23) = (   0.6250000  -0.3750000   0.8750000), wk =   0.1875000
        k(   24) = (   0.5000000  -0.2500000   0.7500000), wk =   0.0937500
        k(   25) = (   0.7500000  -0.2500000   1.0000000), wk =   0.0937500
        k(   26) = (   0.6250000  -0.1250000   0.8750000), wk =   0.1875000
        k(   27) = (   0.5000000   0.0000000   0.7500000), wk =   0.0937500
        k(   28) = (  -0.2500000  -1.0000000   0.0000000), wk =   0.0468750
        k(   29) = (  -0.5000000  -1.0000000   0.0000000), wk =   0.0234375

                       cryst. coord.
        k(    1) = (   0.0000000   0.0000000   0.0000000), wk =   0.0039062
        k(    2) = (   0.0000000   0.0000000   0.1250000), wk =   0.0312500
        k(    3) = (   0.0000000   0.0000000   0.2500000), wk =   0.0312500
        k(    4) = (   0.0000000   0.0000000   0.3750000), wk =   0.0312500
        k(    5) = (   0.0000000   0.0000000  -0.5000000), wk =   0.0156250
        k(    6) = (   0.0000000   0.1250000   0.1250000), wk =   0.0234375
        k(    7) = (   0.0000000   0.1250000   0.2500000), wk =   0.0937500
        k(    8) = (   0.0000000   0.1250000   0.3750000), wk =   0.0937500
        k(    9) = (   0.0000000   0.1250000  -0.5000000), wk =   0.0937500
        k(   10) = (   0.0000000   0.1250000  -0.3750000), wk =   0.0937500
        k(   11) = (   0.0000000   0.1250000  -0.2500000), wk =   0.0937500
        k(   12) = (   0.0000000   0.1250000  -0.1250000), wk =   0.0468750
        k(   13) = (   0.0000000   0.2500000   0.2500000), wk =   0.0234375
        k(   14) = (   0.0000000   0.2500000   0.3750000), wk =   0.0937500
        k(   15) = (   0.0000000   0.2500000  -0.5000000), wk =   0.0937500
        k(   16) = (   0.0000000   0.2500000  -0.3750000), wk =   0.0937500
        k(   17) = (   0.0000000   0.2500000  -0.2500000), wk =   0.0468750
        k(   18) = (   0.0000000   0.3750000   0.3750000), wk =   0.0234375
        k(   19) = (   0.0000000   0.3750000  -0.5000000), wk =   0.0937500
        k(   20) = (   0.0000000   0.3750000  -0.3750000), wk =   0.0468750
        k(   21) = (   0.0000000  -0.5000000  -0.5000000), wk =   0.0117188
        k(   22) = (   0.1250000   0.2500000   0.3750000), wk =   0.0937500
        k(   23) = (   0.1250000   0.2500000  -0.5000000), wk =   0.1875000
        k(   24) = (   0.1250000   0.2500000  -0.3750000), wk =   0.0937500
        k(   25) = (   0.1250000   0.3750000  -0.5000000), wk =   0.0937500
        k(   26) = (   0.1250000   0.3750000  -0.3750000), wk =   0.1875000
        k(   27) = (   0.1250000   0.3750000  -0.2500000), wk =   0.0937500
        k(   28) = (   0.1250000  -0.5000000  -0.3750000), wk =   0.0468750
        k(   29) = (   0.2500000  -0.5000000  -0.2500000), wk =   0.0234375

     Dense  grid:    14331 G-vectors     FFT dimensions: (  36,  36,  36)

     Dynamical RAM for                 wfc:       0.83 MB

     Dynamical RAM for     wfc (w. buffer):      24.83 MB

     Dynamical RAM for           str. fact:       0.66 MB

     Dynamical RAM for           local pot:       0.00 MB

     Dynamical RAM for          nlocal pot:       1.49 MB

     Dynamical RAM for                qrad:       3.41 MB

     Dynamical RAM for          rho,v,vnew:       1.72 MB

     Dynamical RAM for               rhoin:       0.57 MB

     Dynamical RAM for            rho*nmix:       3.50 MB

     Dynamical RAM for           G-vectors:       0.93 MB

     Dynamical RAM for          h,s,v(r/c):       0.16 MB

     Dynamical RAM for          <psi|beta>:       0.02 MB

     Dynamical RAM for                 psi:       1.66 MB

     Dynamical RAM for                hpsi:       1.66 MB

     Dynamical RAM for                spsi:       1.66 MB

     Dynamical RAM for      wfcinit/wfcrot:       1.68 MB

     Dynamical RAM for           addusdens:      40.89 MB

     Estimated static dynamical RAM per process >      39.76 MB

     Estimated max dynamical RAM per process >      80.66 MB

     Check: negative core charge=   -0.000003

     Initial potential from superposition of free atoms

     starting charge   30.99935, renormalised to   31.00000
     Starting wfcs are   27 randomized atomic wfcs +    3 random wfcs
     Checking if some PAW data can be deallocated... 

     total cpu time spent up to now is        2.2 secs

     Self-consistent Calculation

     iteration #  1     ecut=    50.00 Ry     beta= 0.70
     Davidson diagonalization with overlap
     ethr =  1.00E-02,  avg # of iterations =  5.6

     total cpu time spent up to now is        6.5 secs

     total energy              =   -1144.65358441 Ry
     estimated scf accuracy    <       1.81583342 Ry

     iteration #  2     ecut=    50.00 Ry     beta= 0.70
     Davidson diagonalization with overlap
     ethr =  5.86E-03,  avg # of iterations =  2.1

     total cpu time spent up to now is       10.3 secs

     total energy              =   -1142.65147961 Ry
     estimated scf accuracy    <      46.08688135 Ry

     iteration #  3     ecut=    50.00 Ry     beta= 0.70
     Davidson diagonalization with overlap
     ethr =  5.86E-03,  avg # of iterations =  2.0

     total cpu time spent up to now is       13.7 secs

     total energy              =   -1145.97900470 Ry
     estimated scf accuracy    <       0.38745393 Ry

     iteration #  4     ecut=    50.00 Ry     beta= 0.70
     Davidson diagonalization with overlap
     ethr =  1.25E-03,  avg # of iterations =  1.6

     total cpu time spent up to now is       16.9 secs

     total energy              =   -1146.02952699 Ry
     estimated scf accuracy    <       0.03531751 Ry

     iteration #  5     ecut=    50.00 Ry     beta= 0.70
     Davidson diagonalization with overlap
     ethr =  1.14E-04,  avg # of iterations =  3.9

     total cpu time spent up to now is       20.5 secs

     total energy              =   -1146.03015436 Ry
     estimated scf accuracy    <       0.01460503 Ry

     iteration #  6     ecut=    50.00 Ry     beta= 0.70
     Davidson diagonalization with overlap
     ethr =  4.71E-05,  avg # of iterations =  2.6

     total cpu time spent up to now is       23.9 secs

     total energy              =   -1146.03237754 Ry
     estimated scf accuracy    <       0.00197317 Ry

     iteration #  7     ecut=    50.00 Ry     beta= 0.70
     Davidson diagonalization with overlap
     ethr =  6.37E-06,  avg # of iterations =  6.4

     total cpu time spent up to now is       27.9 secs

     total energy              =   -1146.03262817 Ry
     estimated scf accuracy    <       0.00128939 Ry

     iteration #  8     ecut=    50.00 Ry     beta= 0.70
     Davidson diagonalization with overlap
     ethr =  4.16E-06,  avg # of iterations =  1.4

     total cpu time spent up to now is       31.2 secs

     total energy              =   -1146.03277085 Ry
     estimated scf accuracy    <       0.00002707 Ry

     iteration #  9     ecut=    50.00 Ry     beta= 0.70
     Davidson diagonalization with overlap
     ethr =  8.73E-08,  avg # of iterations =  5.3

     total cpu time spent up to now is       35.8 secs

     total energy              =   -1146.03279870 Ry
     estimated scf accuracy    <       0.00000848 Ry

     iteration # 10     ecut=    50.00 Ry     beta= 0.70
     Davidson diagonalization with overlap
     ethr =  2.73E-08,  avg # of iterations =  1.2

     total cpu time spent up to now is       39.2 secs

     total energy              =   -1146.03279911 Ry
     estimated scf accuracy    <       0.00000074 Ry

     iteration # 11     ecut=    50.00 Ry     beta= 0.70
     Davidson diagonalization with overlap
     ethr =  2.40E-09,  avg # of iterations =  2.0

     total cpu time spent up to now is       42.6 secs

     total energy              =   -1146.03279913 Ry
     estimated scf accuracy    <       0.00000017 Ry

     iteration # 12     ecut=    50.00 Ry     beta= 0.70
     Davidson diagonalization with overlap
     ethr =  5.40E-10,  avg # of iterations =  2.7

     total cpu time spent up to now is       46.3 secs

     End of self-consistent calculation

          k = 0.0000 0.0000 0.0000 (  1807 PWs)   bands (ev):

     3.3975   7.2573   7.2573   7.7502   7.7502   7.7502   9.0419   9.0419
     9.0419  10.5102  10.5102  10.8056  10.8056  10.8056  11.3808  11.3808
    19.2963  19.2963  19.2963  21.5179  21.6252  22.2884  22.2884  22.2884
    24.4976  24.4976  24.4976  29.4262  29.4262  30.0348

     occupation numbers 
     1.0000   1.0000   1.0000   1.0000   1.0000   1.0000   1.0000   1.0000
     1.0000   1.0000   1.0000   1.0000   1.0000   1.0000   1.0193   1.0193
    -0.0000  -0.0000  -0.0000  -0.0000  -0.0000  -0.0000  -0.0000  -0.0000
    -0.0000  -0.0000  -0.0000  -0.0000  -0.0000  -0.0000

          k =-0.1250 0.1250-0.1250 (  1829 PWs)   bands (ev):

     3.6458   7.3268   7.3268   7.7018   7.8198   7.8198   9.0166   9.0166
     9.1146  10.4000  10.4000  10.5637  10.7633  10.7633  11.3938  11.3938
    17.4204  19.2363  19.2363  21.1292  22.1010  22.1010  22.2396  22.9383
    24.6522  24.6522  25.8565  30.0992  30.0992  31.2312

     occupation numbers 
     1.0000   1.0000   1.0000   1.0000   1.0000   1.0000   1.0000   1.0000
     1.0000   1.0000   1.0000   1.0000   1.0000   1.0000   1.0279   1.0279
    -0.0000  -0.0000  -0.0000  -0.0000  -0.0000  -0.0000  -0.0000  -0.0000
    -0.0000  -0.0000  -0.0000  -0.0000  -0.0000  -0.0000

          k =-0.2500 0.2500-0.2500 (  1820 PWs)   bands (ev):

     4.3570   7.5232   7.5232   7.6423   7.9907   7.9907   8.9607   8.9607
     9.1960   9.9884  10.0609  10.0609  10.7499  10.7499  11.3816  11.3816
    14.8342  19.0503  19.0503  20.5620  21.6169  21.6169  22.3409  24.3943
    25.4479  25.4479  29.0893  31.6265  31.6265  34.0545

     occupation numbers 
     1.0000   1.0000   1.0000   1.0000   1.0000   1.0000   1.0000   1.0000
     1.0000   1.0000   1.0000   1.0000   1.0000   1.0000   1.0198   1.0198
    -0.0000  -0.0000  -0.0000  -0.0000  -0.0000  -0.0000  -0.0000  -0.0000
    -0.0000  -0.0000  -0.0000  -0.0000  -0.0000  -0.0000

          k =-0.3750 0.3750-0.3750 (  1832 PWs)   bands (ev):

     5.3835   7.6421   7.7830   7.7830   8.1649   8.1649   8.7921   8.9235
     8.9235   9.6432   9.6432   9.6800  10.7853  10.7853  11.3238  11.3238
    12.8145  18.7986  18.7986  20.1675  21.2237  21.2237  22.2333  26.6801
    26.8470  26.8470  31.9245  31.9245  32.4639  34.1751

     occupation numbers 
     1.0000   1.0000   1.0000   1.0000   1.0000   1.0000   1.0000   1.0000
     1.0000   1.0000   1.0000   1.0000   1.0000   1.0000   1.0010   1.0010
    -0.0000  -0.0000  -0.0000  -0.0000  -0.0000  -0.0000  -0.0000  -0.0000
    -0.0000  -0.0000  -0.0000  -0.0000  -0.0000  -0.0000

          k = 0.5000-0.5000 0.5000 (  1802 PWs)   bands (ev):

     6.0907   7.5803   7.9247   7.9247   8.2375   8.2375   8.3455   8.9306
     8.9306   9.4195   9.4195   9.6739  10.8132  10.8132  11.2845  11.2845
    12.0154  18.6751  18.6751  20.0308  21.0944  21.0944  22.1892  27.9505
    27.9505  28.8164  30.6555  30.6555  30.8681  35.5079

     occupation numbers 
     1.0000   1.0000   1.0000   1.0000   1.0000   1.0000   1.0000   1.0000
     1.0000   1.0000   1.0000   1.0000   1.0000   1.0000   1.0001   1.0001
    -0.0000  -0.0000  -0.0000  -0.0000  -0.0000  -0.0000  -0.0000  -0.0000
    -0.0000  -0.0000  -0.0000  -0.0000  -0.0000  -0.0000

          k = 0.0000 0.2500 0.0000 (  1824 PWs)   bands (ev):

     3.7267   7.3144   7.3637   7.6620   7.8541   7.8541   8.9137   9.1173
     9.1173  10.2587  10.4897  10.6943  10.6943  10.7012  11.2986  11.4452
    18.1906  18.1906  18.5113  20.3962  21.4699  22.8604  22.8604  23.6008
    24.7953  25.7165  25.7165  29.3174  29.7245  32.4884

     occupation numbers 
     1.0000   1.0000   1.0000   1.0000   1.0000   1.0000   1.0000   1.0000
     1.0000   1.0000   1.0000   1.0000   1.0000   1.0000   1.0002   0.9725
    -0.0000  -0.0000  -0.0000  -0.0000  -0.0000  -0.0000  -0.0000  -0.0000
    -0.0000  -0.0000  -0.0000  -0.0000  -0.0000  -0.0000

          k =-0.1250 0.3750-0.1250 (  1813 PWs)   bands (ev):

     4.2785   7.3763   7.5265   7.6119   7.9879   8.0208   8.7371   9.1649
     9.2119  10.0237  10.2692  10.3193  10.6846  10.7433  11.2339  11.4602
    15.7502  17.4762  18.8440  19.5033  21.5073  22.9674  23.1361  24.4746
    25.7166  26.6207  28.0932  29.9469  30.8561  34.7828

     occupation numbers 
     1.0000   1.0000   1.0000   1.0000   1.0000   1.0000   1.0000   1.0000
     1.0000   1.0000   1.0000   1.0000   1.0000   1.0000   1.0000   0.8797
    -0.0000  -0.0000  -0.0000  -0.0000  -0.0000  -0.0000  -0.0000  -0.0000
    -0.0000  -0.0000  -0.0000  -0.0000  -0.0000  -0.0000

          k =-0.2500 0.5000-0.2500 (  1824 PWs)   bands (ev):

     5.2016   7.4290   7.6508   7.7639   8.1473   8.2716   8.6073   9.1406
     9.1511   9.7230   9.8252   9.9223  10.7470  10.7686  11.2080  11.4264
    13.4241  17.2090  17.8900  19.6046  22.1034  22.8889  23.5251  24.3198
    27.6011  27.7137  30.7695  31.2812  32.7254  33.5920

     occupation numbers 
     1.0000   1.0000   1.0000   1.0000   1.0000   1.0000   1.0000   1.0000
     1.0000   1.0000   1.0000   1.0000   1.0000   1.0000   1.0000   1.0265
    -0.0000  -0.0000  -0.0000  -0.0000  -0.0000  -0.0000  -0.0000  -0.0000
    -0.0000  -0.0000  -0.0000  -0.0000  -0.0000  -0.0000

          k = 0.6250-0.3750 0.6250 (  1803 PWs)   bands (ev):

     6.1354   7.3069   7.7650   7.9301   8.2539   8.2976   8.7363   8.9266
     9.0673   9.4167   9.5221   9.7855  10.7553  10.8264  11.2919  11.3138
    12.0789  17.0510  17.4588  19.6795  22.1627  22.4435  23.8833  25.8349
    28.1304  28.9376  30.5194  30.7650  33.3033  34.3245

     occupation numbers 
     1.0000   1.0000   1.0000   1.0000   1.0000   1.0000   1.0000   1.0000
     1.0000   1.0000   1.0000   1.0000   1.0000   1.0000   1.0001   1.0005
    -0.0000  -0.0000  -0.0000  -0.0000  -0.0000  -0.0000  -0.0000  -0.0000
    -0.0000  -0.0000  -0.0000  -0.0000  -0.0000  -0.0000

          k = 0.5000-0.2500 0.5000 (  1805 PWs)   bands (ev):

     5.8726   7.4159   7.7719   7.8719   8.2945   8.3306   8.6316   8.8401
     9.1215   9.4604   9.5704   9.8187  10.7337  10.8508  11.1791  11.4223
    12.4157  16.5812  18.2315  19.8986  21.9921  22.0823  24.0518  26.3799
    26.3924  28.5241  30.9249  32.3608  32.3660  34.0735

     occupation numbers 
     1.0000   1.0000   1.0000   1.0000   1.0000   1.0000   1.0000   1.0000
     1.0000   1.0000   1.0000   1.0000   1.0000   1.0000   1.0000   1.0312
    -0.0000  -0.0000  -0.0000  -0.0000  -0.0000  -0.0000  -0.0000  -0.0000
    -0.0000  -0.0000  -0.0000  -0.0000  -0.0000  -0.0000

          k = 0.3750-0.1250 0.3750 (  1825 PWs)   bands (ev):

     4.8667   7.5248   7.6062   7.6437   8.1467   8.1924   8.7817   8.9333
     9.1886   9.8060   9.8311  10.0611  10.7325  10.7886  11.1650  11.4934
    14.1874  16.5512  19.4173  20.3918  21.4487  21.9943  23.6192  24.7910
    25.0307  28.4504  29.8530  30.9181  32.4375  33.6529

     occupation numbers 
     1.0000   1.0000   1.0000   1.0000   1.0000   1.0000   1.0000   1.0000
     1.0000   1.0000   1.0000   1.0000   1.0000   1.0000   1.0000   0.5253
    -0.0000  -0.0000  -0.0000  -0.0000  -0.0000  -0.0000  -0.0000  -0.0000
    -0.0000  -0.0000  -0.0000  -0.0000  -0.0000  -0.0000

          k = 0.2500 0.0000 0.2500 (  1807 PWs)   bands (ev):

     4.0472   7.4276   7.4315   7.6129   7.9275   7.9672   8.8857   9.0935
     9.1500  10.1588  10.1822  10.4159  10.7167  10.7529  11.2697  11.4780
    16.4179  17.1916  20.3034  21.0186  21.2319  21.6692  22.6243  24.1625
    24.2483  26.8234  27.3142  29.4395  31.7179  33.0673

     occupation numbers 
     1.0000   1.0000   1.0000   1.0000   1.0000   1.0000   1.0000   1.0000
     1.0000   1.0000   1.0000   1.0000   1.0000   1.0000   1.0000   0.7092
    -0.0000  -0.0000  -0.0000  -0.0000  -0.0000  -0.0000  -0.0000  -0.0000
    -0.0000  -0.0000  -0.0000  -0.0000  -0.0000  -0.0000

          k = 0.0000 0.5000 0.0000 (  1812 PWs)   bands (ev):

     4.6430   7.2288   7.5832   7.6506   8.0803   8.0803   8.5034   9.3201
     9.3201   9.9972  10.4150  10.5567  10.5567  10.6325  11.0945  11.4432
    16.2316  16.2316  17.1681  17.9371  20.9585  24.3935  24.3935  26.9392
    27.1681  28.0263  28.0263  29.0302  29.8236  34.9791

     occupation numbers 
     1.0000   1.0000   1.0000   1.0000   1.0000   1.0000   1.0000   1.0000
     1.0000   1.0000   1.0000   1.0000   1.0000   1.0000   1.0000   0.9810
    -0.0000  -0.0000  -0.0000  -0.0000  -0.0000  -0.0000  -0.0000  -0.0000
    -0.0000  -0.0000  -0.0000  -0.0000  -0.0000  -0.0000

          k =-0.1250 0.6250-0.1250 (  1801 PWs)   bands (ev):

     5.3722   7.1691   7.4689   7.8453   8.2091   8.2328   8.4612   9.3460
     9.3685   9.9328  10.1360  10.3309  10.6443  10.7539  11.0893  11.4454
    14.1644  15.5771  15.8989  18.5852  21.3350  24.7025  24.8821  27.1264
    28.8273  28.8410  29.6207  30.1178  31.6884  33.5281

     occupation numbers 
     1.0000   1.0000   1.0000   1.0000   1.0000   1.0000   1.0000   1.0000
     1.0000   1.0000   1.0000   1.0000   1.0000   1.0000   1.0000   0.9716
    -0.0000  -0.0000  -0.0000  -0.0000  -0.0000  -0.0000  -0.0000  -0.0000
    -0.0000  -0.0000  -0.0000  -0.0000  -0.0000  -0.0000

          k = 0.7500-0.2500 0.7500 (  1804 PWs)   bands (ev):

     6.2476   7.0758   7.4428   7.9721   8.1419   8.4114   8.7541   9.2284
     9.4528   9.6633   9.7557  10.1582  10.6082  10.8961  11.3150  11.4231
    12.2906  14.8902  15.6913  19.1621  22.7823  24.4703  24.6263  26.8615
    28.5071  29.2408  30.3776  31.3057  33.0656  34.1327

     occupation numbers 
     1.0000   1.0000   1.0000   1.0000   1.0000   1.0000   1.0000   1.0000
     1.0000   1.0000   1.0000   1.0000   1.0000   1.0000   1.0006   1.0305
    -0.0000  -0.0000  -0.0000  -0.0000  -0.0000  -0.0000  -0.0000  -0.0000
    -0.0000  -0.0000  -0.0000  -0.0000  -0.0000  -0.0000

          k = 0.6250-0.1250 0.6250 (  1810 PWs)   bands (ev):

     6.4671   7.1065   7.6412   7.9622   7.9804   8.5728   8.8989   9.0331
     9.2755   9.4587   9.7538   9.9370  10.6187  10.8316  11.3210  11.4897
    12.2453  14.2347  16.5421  19.4749  23.6585  24.1949  25.1067  26.3329
    26.3398  27.9915  31.4188  32.2488  33.8188  34.5099

     occupation numbers 
     1.0000   1.0000   1.0000   1.0000   1.0000   1.0000   1.0000   1.0000
     1.0000   1.0000   1.0000   1.0000   1.0000   1.0000   1.0009   0.5699
    -0.0000  -0.0000  -0.0000  -0.0000  -0.0000  -0.0000  -0.0000  -0.0000
    -0.0000  -0.0000  -0.0000  -0.0000  -0.0000  -0.0000

          k = 0.5000 0.0000 0.5000 (  1812 PWs)   bands (ev):

     5.6845   7.3936   7.6166   7.8315   8.2814   8.4418   8.7236   8.7886
     9.2401   9.4989   9.7508  10.0175  10.6751  10.8382  11.0980  11.5393
    13.7473  14.2693  17.9028  19.8423  23.2531  23.3945  23.8313  24.8074
    27.1870  28.3283  30.0564  32.2323  32.8209  34.0058

     occupation numbers 
     1.0000   1.0000   1.0000   1.0000   1.0000   1.0000   1.0000   1.0000
     1.0000   1.0000   1.0000   1.0000   1.0000   1.0000   1.0000   0.0608
    -0.0000  -0.0000  -0.0000  -0.0000  -0.0000  -0.0000  -0.0000  -0.0000
    -0.0000  -0.0000  -0.0000  -0.0000  -0.0000  -0.0000

          k = 0.0000 0.7500 0.0000 (  1780 PWs)   bands (ev):

     5.8105   6.9774   7.3508   8.0036   8.2655   8.2655   8.4515   9.4086
     9.4086  10.0544  10.2603  10.5305  10.9034  10.9034  10.9035  11.4855
    14.1750  14.4009  14.4009  17.7141  20.7759  26.6215  26.6215  28.7081
    29.5646  29.8903  30.2073  30.2073  31.5700  33.3669

     occupation numbers 
     1.0000   1.0000   1.0000   1.0000   1.0000   1.0000   1.0000   1.0000
     1.0000   1.0000   1.0000   1.0000   1.0000   1.0000   1.0000   0.6218
    -0.0000  -0.0000  -0.0000  -0.0000  -0.0000  -0.0000  -0.0000  -0.0000
    -0.0000  -0.0000  -0.0000  -0.0000  -0.0000  -0.0000

          k = 0.8750-0.1250 0.8750 (  1794 PWs)   bands (ev):

     6.3270   6.8786   7.3881   8.0775   8.1602   8.4163   8.6288   9.3020
     9.5249  10.0296  10.1310  10.4368  10.5703  11.2476  11.3608  11.6378
    12.7077  13.3630  14.1603  18.3434  21.2021  26.8311  26.9136  28.6469
    28.9931  30.1156  30.7137  31.7171  32.6643  32.7358

     occupation numbers 
     1.0000   1.0000   1.0000   1.0000   1.0000   1.0000   1.0000   1.0000
     1.0000   1.0000   1.0000   1.0000   1.0000   1.0000   1.0085  -0.0058
    -0.0000  -0.0000  -0.0000  -0.0000  -0.0000  -0.0000  -0.0000  -0.0000
    -0.0000  -0.0000  -0.0000  -0.0000  -0.0000  -0.0000

          k = 0.7500 0.0000 0.7500 (  1790 PWs)   bands (ev):

     6.7183   6.8685   7.5729   7.8180   8.0298   8.6397   8.8048   9.1077
     9.6640   9.8333   9.8922  10.2804  10.4958  11.1822  11.5057  11.5131
    12.2372  12.7546  15.0392  19.0539  22.7288  26.3102  26.4133  26.4767
    26.7557  30.3659  31.1787  31.7748  33.2701  33.9818

     occupation numbers 
     1.0000   1.0000   1.0000   1.0000   1.0000   1.0000   1.0000   1.0000
     1.0000   1.0000   1.0000   1.0000   1.0000   1.0000   0.3739   0.2877
    -0.0000  -0.0000  -0.0000  -0.0000  -0.0000  -0.0000  -0.0000  -0.0000
    -0.0000  -0.0000  -0.0000  -0.0000  -0.0000  -0.0000

          k = 0.0000-1.0000 0.0000 (  1772 PWs)   bands (ev):

     6.3576   6.7380   7.4593   8.1837   8.3325   8.3325   8.5490   9.3742
     9.3742  10.1435  10.1481  10.4451  10.8382  11.4315  11.4315  11.8679
    12.4413  13.4104  13.4104  17.6763  20.7324  28.5652  28.5796  28.5796
    29.7406  30.4661  30.4661  31.7436  31.9174  31.9174

     occupation numbers 
     1.0000   1.0000   1.0000   1.0000   1.0000   1.0000   1.0000   1.0000
     1.0000   1.0000   1.0000   1.0000   1.0000   1.0176   1.0176  -0.0000
    -0.0000  -0.0000  -0.0000  -0.0000  -0.0000  -0.0000  -0.0000  -0.0000
    -0.0000  -0.0000  -0.0000  -0.0000  -0.0000  -0.0000

          k =-0.2500 0.5000 0.0000 (  1816 PWs)   bands (ev):

     4.9315   7.3427   7.5538   7.7330   8.1474   8.2120   8.5436   9.1825
     9.2734   9.9077   9.9704  10.2032  10.7010  10.7631  11.1062  11.4882
    14.9099  15.5165  17.7395  19.9831  21.6692  22.5002  24.5574  25.4309
    26.2994  28.9813  29.6081  29.8699  31.6502  33.6407

     occupation numbers 
     1.0000   1.0000   1.0000   1.0000   1.0000   1.0000   1.0000   1.0000
     1.0000   1.0000   1.0000   1.0000   1.0000   1.0000   1.0000   0.5890
    -0.0000  -0.0000  -0.0000  -0.0000  -0.0000  -0.0000  -0.0000  -0.0000
    -0.0000  -0.0000  -0.0000  -0.0000  -0.0000  -0.0000

          k = 0.6250-0.3750 0.8750 (  1808 PWs)   bands (ev):

     5.8439   7.2953   7.5030   7.9420   8.2690   8.3117   8.6860   9.0597
     9.3164   9.5571   9.7424  10.0385  10.6515  10.8686  11.1556  11.4828
    12.9773  15.1368  16.5832  20.5517  21.7993  23.2153  24.8981  26.0567
    27.4265  28.5865  30.6399  31.6313  32.9244  33.5587

     occupation numbers 
     1.0000   1.0000   1.0000   1.0000   1.0000   1.0000   1.0000   1.0000
     1.0000   1.0000   1.0000   1.0000   1.0000   1.0000   1.0000   0.6540
    -0.0000  -0.0000  -0.0000  -0.0000  -0.0000  -0.0000  -0.0000  -0.0000
    -0.0000  -0.0000  -0.0000  -0.0000  -0.0000  -0.0000

          k = 0.5000-0.2500 0.7500 (  1808 PWs)   bands (ev):

     6.4965   7.0457   7.5981   7.9408   8.2531   8.3780   8.9371   8.9774
     9.2715   9.4048   9.7066   9.9108  10.6239  10.9605  11.2802  11.4342
    11.9488  15.3324  15.9309  20.5886  21.7010  24.6697  25.0368  25.9773
    26.7031  29.1151  30.2401  33.3463  33.4816  33.8259

     occupation numbers 
     1.0000   1.0000   1.0000   1.0000   1.0000   1.0000   1.0000   1.0000
     1.0000   1.0000   1.0000   1.0000   1.0000   1.0000   1.0000   1.0113
    -0.0000  -0.0000  -0.0000  -0.0000  -0.0000  -0.0000  -0.0000  -0.0000
    -0.0000  -0.0000  -0.0000  -0.0000  -0.0000  -0.0000

          k = 0.7500-0.2500 1.0000 (  1807 PWs)   bands (ev):

     6.0441   7.0950   7.3246   7.9834   8.1997   8.3833   8.6020   9.3036
     9.4606   9.8871  10.0000  10.2594  10.5729  10.9701  11.2296  11.5005
    13.5214  13.9418  14.7601  19.3524  21.5604  24.1913  26.8196  28.0148
    28.7852  28.9940  30.0612  31.7107  32.5063  33.4396

     occupation numbers 
     1.0000   1.0000   1.0000   1.0000   1.0000   1.0000   1.0000   1.0000
     1.0000   1.0000   1.0000   1.0000   1.0000   1.0000   1.0000   0.4370
    -0.0000  -0.0000  -0.0000  -0.0000  -0.0000  -0.0000  -0.0000  -0.0000
    -0.0000  -0.0000  -0.0000  -0.0000  -0.0000  -0.0000

          k = 0.6250-0.1250 0.8750 (  1804 PWs)   bands (ev):

     6.6539   6.9810   7.4282   7.8111   8.2236   8.5890   8.7873   9.1698
     9.4436   9.7531   9.8527  10.2016  10.5157  11.2687  11.4935  11.6094
    12.0541  13.5411  14.3612  20.2907  22.8001  23.6586  25.7618  27.2711
    29.1154  29.5205  30.5327  32.1973  32.9843  33.3248

     occupation numbers 
     1.0000   1.0000   1.0000   1.0000   1.0000   1.0000   1.0000   1.0000
     1.0000   1.0000   1.0000   1.0000   1.0000   1.0000   0.5239  -0.0196
    -0.0000  -0.0000  -0.0000  -0.0000  -0.0000  -0.0000  -0.0000  -0.0000
    -0.0000  -0.0000  -0.0000  -0.0000  -0.0000  -0.0000

          k = 0.5000 0.0000 0.7500 (  1807 PWs)   bands (ev):

     6.5229   7.1143   7.4630   7.8296   8.2705   8.5605   8.8307   9.0327
     9.2746   9.6992   9.7908  10.0775  10.5444  10.9827  11.3571  11.5458
    12.8592  13.1692  15.2914  20.8437  22.6239  23.6574  25.3491  26.7512
    27.6306  29.5238  30.0063  32.6433  33.0601  34.6152

     occupation numbers 
     1.0000   1.0000   1.0000   1.0000   1.0000   1.0000   1.0000   1.0000
     1.0000   1.0000   1.0000   1.0000   1.0000   1.0000   1.0072   0.0266
    -0.0000  -0.0000  -0.0000  -0.0000  -0.0000  -0.0000  -0.0000  -0.0000
    -0.0000  -0.0000  -0.0000  -0.0000  -0.0000  -0.0000

          k =-0.2500-1.0000 0.0000 (  1796 PWs)   bands (ev):

     6.5437   6.8713   7.4764   7.9194   8.1427   8.5645   8.6784   9.2902
     9.6139  10.0014  10.0810  10.2034  10.5017  11.4634  11.5451  11.9640
    12.3373  13.0484  13.3060  19.1742  21.5022  26.0909  26.3306  29.0738
    29.2553  30.1205  31.1858  31.5965  32.5854  33.1060

     occupation numbers 
     1.0000   1.0000   1.0000   1.0000   1.0000   1.0000   1.0000   1.0000
     1.0000   1.0000   1.0000   1.0000   1.0000   0.8534   0.0297  -0.0000
    -0.0000  -0.0000  -0.0000  -0.0000  -0.0000  -0.0000  -0.0000  -0.0000
    -0.0000  -0.0000  -0.0000  -0.0000  -0.0000  -0.0000

          k =-0.5000-1.0000 0.0000 (  1800 PWs)   bands (ev):

     6.7401   7.1190   7.5019   7.5120   8.4743   8.6244   8.7464   9.2045
     9.2204   9.7796   9.8760  10.2775  10.5060  11.4722  11.6410  12.2662
    12.3626  12.3950  13.2574  22.3126  22.4017  23.1034  23.9880  29.3373
    29.6736  30.0575  31.4517  31.4806  31.8011  32.4806

     occupation numbers 
     1.0000   1.0000   1.0000   1.0000   1.0000   1.0000   1.0000   1.0000
     1.0000   1.0000   1.0000   1.0000   1.0000   0.7706  -0.0050  -0.0000
    -0.0000  -0.0000  -0.0000  -0.0000  -0.0000  -0.0000  -0.0000  -0.0000
    -0.0000  -0.0000  -0.0000  -0.0000  -0.0000  -0.0000

     the Fermi energy is    11.4954 ev

!    total energy              =   -1146.03279918 Ry

     total all-electron energy =    -43178.992178 Ry
     estimated scf accuracy    <          5.4E-09 Ry
     smearing contrib. (-TS)   =      -0.00045502 Ry
     internal energy E=F+TS    =   -1146.03234416 Ry

     The total energy is F=E-TS. E is the sum of the following terms:
     one-electron contribution =     -53.04302265 Ry
     hartree contribution      =      68.94929278 Ry
     xc contribution           =    -110.17631331 Ry
     ewald contribution        =    -192.14775499 Ry
     one-center paw contrib.   =    -859.61454599 Ry
      -> PAW hartree energy AE =     231.68104350 Ry
      -> PAW hartree energy PS =    -230.60948273 Ry
      -> PAW xc energy AE      =    -970.76964264 Ry
      -> PAW xc energy PS      =     110.08353589 Ry
      -> total E_H with PAW    =      70.02085355 Ry
      -> total E_XC with PAW   =    -970.86242007 Ry

     convergence has been achieved in  12 iterations

     Writing output data file ././CuPtNi.save/

     init_run     :      2.66s CPU      2.01s WALL (       1 calls)
     electrons    :     73.08s CPU     44.27s WALL (       1 calls)

     Called by init_run:
     wfcinit      :      1.51s CPU      0.91s WALL (       1 calls)
     wfcinit:atom :      0.03s CPU      0.01s WALL (      29 calls)
     wfcinit:wfcr :      1.41s CPU      0.86s WALL (      29 calls)
     potinit      :      0.34s CPU      0.36s WALL (       1 calls)
     hinit0       :      0.68s CPU      0.64s WALL (       1 calls)

     Called by electrons:
     c_bands      :     54.74s CPU     31.28s WALL (      12 calls)
     sum_band     :     12.30s CPU      7.34s WALL (      12 calls)
     v_of_rho     :      0.39s CPU      0.24s WALL (      13 calls)
     v_h          :      0.02s CPU      0.01s WALL (      13 calls)
     v_xc         :      0.37s CPU      0.23s WALL (      13 calls)
     newd         :      1.09s CPU      0.98s WALL (      13 calls)
     PAW_pot      :      4.81s CPU      4.53s WALL (      13 calls)
     mix_rho      :      0.07s CPU      0.03s WALL (      12 calls)

     Called by c_bands:
     init_us_2    :      1.20s CPU      0.62s WALL (     725 calls)
     cegterg      :     50.24s CPU     28.77s WALL (     348 calls)

     Called by sum_band:
     sum_band:wei :      0.03s CPU      0.01s WALL (      12 calls)
     sum_band:loo :      9.98s CPU      6.19s WALL (      12 calls)
     sum_band:buf :      0.06s CPU      0.03s WALL (     348 calls)
     sum_band:ini :      0.54s CPU      0.30s WALL (     348 calls)
     sum_band:cal :      0.37s CPU      0.33s WALL (     348 calls)
     sum_band:bec :      0.01s CPU      0.00s WALL (     348 calls)
     addusdens    :      2.22s CPU      1.10s WALL (      12 calls)
     addusd:skk   :      0.00s CPU      0.00s WALL (      36 calls)
     addusd:dgemm :      1.21s CPU      0.46s WALL (      36 calls)
     addusd:qvan2 :      0.85s CPU      0.53s WALL (      36 calls)

     Called by *egterg:
     cdiaghg      :      2.79s CPU      1.22s WALL (    1415 calls)
     cegterg:over :      1.06s CPU      0.44s WALL (    1067 calls)
     cegterg:upda :      0.83s CPU      0.33s WALL (    1067 calls)
     cegterg:last :      1.35s CPU      0.51s WALL (     669 calls)
     h_psi        :     43.79s CPU     26.32s WALL (    1444 calls)
     s_psi        :      0.69s CPU      0.32s WALL (    1444 calls)
     g_psi        :      0.40s CPU      0.16s WALL (    1067 calls)

     Called by h_psi:
     h_psi:calbec :      0.80s CPU      0.55s WALL (    1444 calls)
     vloc_psi     :     42.02s CPU     25.29s WALL (    1444 calls)
     add_vuspsi   :      0.70s CPU      0.35s WALL (    1444 calls)

     General routines
     calbec       :      1.17s CPU      0.88s WALL (    1792 calls)
     fft          :      0.18s CPU      0.11s WALL (     143 calls)
     ffts         :      0.01s CPU      0.01s WALL (      12 calls)
     fftw         :     44.08s CPU     26.63s WALL (   62194 calls)

     Parallel routines

     PAW routines
     PAW_pot      :      4.81s CPU      4.53s WALL (      13 calls)
     PAW_symme    :      0.01s CPU      0.01s WALL (      25 calls)

     PWSCF        :   1m15.95s CPU     46.71s WALL


   This run was terminated on:  13:20:24  22May2024            

=------------------------------------------------------------------------------=
   JOB DONE.
=------------------------------------------------------------------------------=
