
     Program PWSCF v.6.7MaX starts on 22May2024 at 13: 6:19 

     This program is part of the open-source Quantum ESPRESSO suite
     for quantum simulation of materials; please cite
         "P. Giannozzi et al., J. Phys.:Condens. Matter 21 395502 (2009);
         "P. Giannozzi et al., J. Phys.:Condens. Matter 29 465901 (2017);
          URL http://www.quantum-espresso.org", 
     in publications or presentations arising from this work. More details at
     http://www.quantum-espresso.org/quote

     Parallel version (MPI), running on     1 processors

     MPI processes distributed on     1 nodes
     Waiting for input...
     Reading input from standard input

     Current dimensions of program PWSCF are:
     Max number of different atomic species (ntypx) = 10
     Max number of k-points (npk) =  40000
     Max angular momentum in pseudopotentials (lmaxx) =  3
     file Cu.UPF: wavefunction(s)  4S 3D renormalized
     file Pt.UPF: wavefunction(s)  6S 5D renormalized
     file Ni.UPF: wavefunction(s)  4S 3D renormalized

     Subspace diagonalization in iterative solution of the eigenvalue problem:
     a serial algorithm will be used


     G-vector sticks info
     --------------------
     sticks:   dense  smooth     PW     G-vecs:    dense   smooth      PW
     Sum         925     925    283                18643    18643    3119



     bravais-lattice index     =            2
     lattice parameter (alat)  =      11.6000  a.u.
     unit-cell volume          =     390.2240 (a.u.)^3
     number of atoms/cell      =            3
     number of atomic types    =            3
     number of electrons       =        31.00
     number of Kohn-Sham states=           30
     kinetic-energy cutoff     =      50.0000  Ry
     charge density cutoff     =     200.0000  Ry
     scf convergence threshold =      1.0E-07
     mixing beta               =       0.7000
     number of iterations used =            8  plain     mixing
     Exchange-correlation= SLA  PW   PBX  PBC
                           (   1   4   3   4   0   0   0)

     celldm(1)=  11.600000  celldm(2)=   0.000000  celldm(3)=   0.000000
     celldm(4)=   0.000000  celldm(5)=   0.000000  celldm(6)=   0.000000

     crystal axes: (cart. coord. in units of alat)
               a(1) = (  -0.500000   0.000000   0.500000 )  
               a(2) = (   0.000000   0.500000   0.500000 )  
               a(3) = (  -0.500000   0.500000   0.000000 )  

     reciprocal axes: (cart. coord. in units 2 pi/alat)
               b(1) = ( -1.000000 -1.000000  1.000000 )  
               b(2) = (  1.000000  1.000000  1.000000 )  
               b(3) = ( -1.000000  1.000000 -1.000000 )  


     PseudoPot. # 1 for Cu read from file:
     ././Cu.UPF
     MD5 check sum: cfffd1f38ee05704b3e17f46f1730a6f
     Pseudo is Projector augmented-wave + core cor, Zval = 11.0
     Generated using &quot;atomic&quot; code by A. Dal Corso  v.6.3
     Shape of augmentation charge: PSQ
     Using radial grid of 1199 points,  6 beta functions with: 
                l(1) =   0
                l(2) =   0
                l(3) =   1
                l(4) =   1
                l(5) =   2
                l(6) =   2
     Q(r) pseudized with 0 coefficients 


     PseudoPot. # 2 for Pt read from file:
     ././Pt.UPF
     MD5 check sum: c5224e9cd7a5e36e81f2def9f50bb494
     Pseudo is Projector augmented-wave + core cor, Zval = 10.0
     Generated using &quot;atomic&quot; code by A. Dal Corso  v.6.3
     Shape of augmentation charge: PSQ
     Using radial grid of 1277 points,  6 beta functions with: 
                l(1) =   0
                l(2) =   0
                l(3) =   1
                l(4) =   1
                l(5) =   2
                l(6) =   2
     Q(r) pseudized with 0 coefficients 


     PseudoPot. # 3 for Ni read from file:
     ././Ni.UPF
     MD5 check sum: 5bc40517020091042a126ac2b4ecef1e
     Pseudo is Projector augmented-wave + core cor, Zval = 10.0
     Generated using "atomic" code by A. Dal Corso  v.5.0.2 svn rev. 9415
     Shape of augmentation charge: PSQ
     Using radial grid of 1195 points,  6 beta functions with: 
                l(1) =   0
                l(2) =   0
                l(3) =   1
                l(4) =   1
                l(5) =   2
                l(6) =   2
     Q(r) pseudized with 0 coefficients 


     atomic species   valence    mass     pseudopotential
        Cu            11.00    63.54600     Cu( 1.00)
        Pt            10.00   195.08000     Pt( 1.00)
        Ni            10.00    58.69000     Ni( 1.00)

     24 Sym. Ops. (no inversion) found


                                    s                        frac. trans.

      isym =  1     identity                                     

 cryst.   s( 1) = (     1          0          0      )
                  (     0          1          0      )
                  (     0          0          1      )

 cart.    s( 1) = (  1.0000000  0.0000000  0.0000000 )
                  (  0.0000000  1.0000000  0.0000000 )
                  (  0.0000000  0.0000000  1.0000000 )


      isym =  2     180 deg rotation - cart. axis [0,0,1]        

 cryst.   s( 2) = (     0          1         -1      )
                  (     1          0         -1      )
                  (     0          0         -1      )

 cart.    s( 2) = ( -1.0000000  0.0000000  0.0000000 )
                  (  0.0000000 -1.0000000  0.0000000 )
                  (  0.0000000  0.0000000  1.0000000 )


      isym =  3     180 deg rotation - cart. axis [0,1,0]        

 cryst.   s( 3) = (    -1          0          0      )
                  (    -1          0          1      )
                  (    -1          1          0      )

 cart.    s( 3) = ( -1.0000000  0.0000000  0.0000000 )
                  (  0.0000000  1.0000000  0.0000000 )
                  (  0.0000000  0.0000000 -1.0000000 )


      isym =  4     180 deg rotation - cart. axis [1,0,0]        

 cryst.   s( 4) = (     0         -1          1      )
                  (     0         -1          0      )
                  (     1         -1          0      )

 cart.    s( 4) = (  1.0000000  0.0000000  0.0000000 )
                  (  0.0000000 -1.0000000  0.0000000 )
                  (  0.0000000  0.0000000 -1.0000000 )


      isym =  5     120 deg rotation - cart. axis [-1,-1,-1]     

 cryst.   s( 5) = (    -1          0          1      )
                  (    -1          1          0      )
                  (    -1          0          0      )

 cart.    s( 5) = (  0.0000000  1.0000000  0.0000000 )
                  (  0.0000000  0.0000000  1.0000000 )
                  (  1.0000000  0.0000000  0.0000000 )


      isym =  6     120 deg rotation - cart. axis [-1,1,1]       

 cryst.   s( 6) = (     0          1          0      )
                  (     0          0          1      )
                  (     1          0          0      )

 cart.    s( 6) = (  0.0000000 -1.0000000  0.0000000 )
                  (  0.0000000  0.0000000  1.0000000 )
                  ( -1.0000000  0.0000000  0.0000000 )


      isym =  7     120 deg rotation - cart. axis [1,1,-1]       

 cryst.   s( 7) = (     1          0         -1      )
                  (     0          0         -1      )
                  (     0          1         -1      )

 cart.    s( 7) = (  0.0000000  1.0000000  0.0000000 )
                  (  0.0000000  0.0000000 -1.0000000 )
                  ( -1.0000000  0.0000000  0.0000000 )


      isym =  8     120 deg rotation - cart. axis [1,-1,1]       

 cryst.   s( 8) = (     0         -1          0      )
                  (     1         -1          0      )
                  (     0         -1          1      )

 cart.    s( 8) = (  0.0000000 -1.0000000  0.0000000 )
                  (  0.0000000  0.0000000 -1.0000000 )
                  (  1.0000000  0.0000000  0.0000000 )


      isym =  9     120 deg rotation - cart. axis [1,1,1]        

 cryst.   s( 9) = (     0          0         -1      )
                  (     0          1         -1      )
                  (     1          0         -1      )

 cart.    s( 9) = (  0.0000000  0.0000000  1.0000000 )
                  (  1.0000000  0.0000000  0.0000000 )
                  (  0.0000000  1.0000000  0.0000000 )


      isym = 10     120 deg rotation - cart. axis [-1,1,-1]      

 cryst.   s(10) = (    -1          1          0      )
                  (    -1          0          0      )
                  (    -1          0          1      )

 cart.    s(10) = (  0.0000000  0.0000000  1.0000000 )
                  ( -1.0000000  0.0000000  0.0000000 )
                  (  0.0000000 -1.0000000  0.0000000 )


      isym = 11     120 deg rotation - cart. axis [1,-1,-1]      

 cryst.   s(11) = (     0          0          1      )
                  (     1          0          0      )
                  (     0          1          0      )

 cart.    s(11) = (  0.0000000  0.0000000 -1.0000000 )
                  ( -1.0000000  0.0000000  0.0000000 )
                  (  0.0000000  1.0000000  0.0000000 )


      isym = 12     120 deg rotation - cart. axis [-1,-1,1]      

 cryst.   s(12) = (     1         -1          0      )
                  (     0         -1          1      )
                  (     0         -1          0      )

 cart.    s(12) = (  0.0000000  0.0000000 -1.0000000 )
                  (  1.0000000  0.0000000  0.0000000 )
                  (  0.0000000 -1.0000000  0.0000000 )


      isym = 13     inv. 180 deg rotation - cart. axis [1,1,0]   

 cryst.   s(13) = (     0          1          0      )
                  (     1          0          0      )
                  (     0          0          1      )

 cart.    s(13) = (  0.0000000 -1.0000000  0.0000000 )
                  ( -1.0000000  0.0000000  0.0000000 )
                  (  0.0000000  0.0000000  1.0000000 )


      isym = 14     inv. 180 deg rotation - cart. axis [1,-1,0]  

 cryst.   s(14) = (     1          0         -1      )
                  (     0          1         -1      )
                  (     0          0         -1      )

 cart.    s(14) = (  0.0000000  1.0000000  0.0000000 )
                  (  1.0000000  0.0000000  0.0000000 )
                  (  0.0000000  0.0000000  1.0000000 )


      isym = 15     inv.  90 deg rotation - cart. axis [0,0,-1]  

 cryst.   s(15) = (     0         -1          0      )
                  (     0         -1          1      )
                  (     1         -1          0      )

 cart.    s(15) = (  0.0000000 -1.0000000  0.0000000 )
                  (  1.0000000  0.0000000  0.0000000 )
                  (  0.0000000  0.0000000 -1.0000000 )


      isym = 16     inv.  90 deg rotation - cart. axis [0,0,1]   

 cryst.   s(16) = (    -1          0          1      )
                  (    -1          0          0      )
                  (    -1          1          0      )

 cart.    s(16) = (  0.0000000  1.0000000  0.0000000 )
                  ( -1.0000000  0.0000000  0.0000000 )
                  (  0.0000000  0.0000000 -1.0000000 )


      isym = 17     inv. 180 deg rotation - cart. axis [1,0,1]   

 cryst.   s(17) = (     1          0          0      )
                  (     0          0          1      )
                  (     0          1          0      )

 cart.    s(17) = (  0.0000000  0.0000000 -1.0000000 )
                  (  0.0000000  1.0000000  0.0000000 )
                  ( -1.0000000  0.0000000  0.0000000 )


      isym = 18     inv. 180 deg rotation - cart. axis [-1,0,1]  

 cryst.   s(18) = (    -1          0          0      )
                  (    -1          1          0      )
                  (    -1          0          1      )

 cart.    s(18) = (  0.0000000  0.0000000  1.0000000 )
                  (  0.0000000  1.0000000  0.0000000 )
                  (  1.0000000  0.0000000  0.0000000 )


      isym = 19     inv.  90 deg rotation - cart. axis [0,1,0]   

 cryst.   s(19) = (     0         -1          1      )
                  (     1         -1          0      )
                  (     0         -1          0      )

 cart.    s(19) = (  0.0000000  0.0000000 -1.0000000 )
                  (  0.0000000 -1.0000000  0.0000000 )
                  (  1.0000000  0.0000000  0.0000000 )


      isym = 20     inv.  90 deg rotation - cart. axis [0,-1,0]  

 cryst.   s(20) = (     0          1         -1      )
                  (     0          0         -1      )
                  (     1          0         -1      )

 cart.    s(20) = (  0.0000000  0.0000000  1.0000000 )
                  (  0.0000000 -1.0000000  0.0000000 )
                  ( -1.0000000  0.0000000  0.0000000 )


      isym = 21     inv. 180 deg rotation - cart. axis [0,1,1]   

 cryst.   s(21) = (     1         -1          0      )
                  (     0         -1          0      )
                  (     0         -1          1      )

 cart.    s(21) = (  1.0000000  0.0000000  0.0000000 )
                  (  0.0000000  0.0000000 -1.0000000 )
                  (  0.0000000 -1.0000000  0.0000000 )


      isym = 22     inv. 180 deg rotation - cart. axis [0,1,-1]  

 cryst.   s(22) = (     0          0          1      )
                  (     0          1          0      )
                  (     1          0          0      )

 cart.    s(22) = (  1.0000000  0.0000000  0.0000000 )
                  (  0.0000000  0.0000000  1.0000000 )
                  (  0.0000000  1.0000000  0.0000000 )


      isym = 23     inv.  90 deg rotation - cart. axis [-1,0,0]  

 cryst.   s(23) = (     0          0         -1      )
                  (     1          0         -1      )
                  (     0          1         -1      )

 cart.    s(23) = ( -1.0000000  0.0000000  0.0000000 )
                  (  0.0000000  0.0000000 -1.0000000 )
                  (  0.0000000  1.0000000  0.0000000 )


      isym = 24     inv.  90 deg rotation - cart. axis [1,0,0]   

 cryst.   s(24) = (    -1          1          0      )
                  (    -1          0          1      )
                  (    -1          0          0      )

 cart.    s(24) = ( -1.0000000  0.0000000  0.0000000 )
                  (  0.0000000  0.0000000  1.0000000 )
                  (  0.0000000 -1.0000000  0.0000000 )


     point group T_d (-43m) 
     there are  5 classes
     the character table:

       E     8C3   3C2   6S4   6s_d 
A_1    1.00  1.00  1.00  1.00  1.00
A_2    1.00  1.00  1.00 -1.00 -1.00
E      2.00 -1.00  2.00  0.00  0.00
T_1    3.00  0.00 -1.00  1.00 -1.00
T_2    3.00  0.00 -1.00 -1.00  1.00

     the symmetry operations in each class and the name of the first element:

     E        1
          identity                                               
     8C3      5    7    8    6   12    9   10   11
          120 deg rotation - cart. axis [-1,-1,-1]               
     3C2      2    3    4
          180 deg rotation - cart. axis [0,0,1]                  
     6S4     15   16   20   19   23   24
          inv.  90 deg rotation - cart. axis [0,0,-1]            
     6s_d    13   14   17   18   21   22
          inv. 180 deg rotation - cart. axis [1,1,0]             

   Cartesian axes

     site n.     atom                  positions (alat units)
         1           Cu  tau(   1) = (   0.0000000   0.0000000   0.0000000  )
         2           Pt  tau(   2) = (   0.5000000   0.5000000   0.5000000  )
         3           Ni  tau(   3) = (   0.2500000   0.2500000   0.2500000  )

   Crystallographic axes

     site n.     atom                  positions (cryst. coord.)
         1           Cu  tau(   1) = (  0.0000000  0.0000000  0.0000000  )
         2           Pt  tau(   2) = ( -0.5000000  1.5000000 -0.5000000  )
         3           Ni  tau(   3) = ( -0.2500000  0.7500000 -0.2500000  )

     number of k points=    29  Methfessel-Paxton smearing, width (Ry)=  0.0050
                       cart. coord. in units 2pi/alat
        k(    1) = (   0.0000000   0.0000000   0.0000000), wk =   0.0039062
        k(    2) = (  -0.1250000   0.1250000  -0.1250000), wk =   0.0312500
        k(    3) = (  -0.2500000   0.2500000  -0.2500000), wk =   0.0312500
        k(    4) = (  -0.3750000   0.3750000  -0.3750000), wk =   0.0312500
        k(    5) = (   0.5000000  -0.5000000   0.5000000), wk =   0.0156250
        k(    6) = (   0.0000000   0.2500000   0.0000000), wk =   0.0234375
        k(    7) = (  -0.1250000   0.3750000  -0.1250000), wk =   0.0937500
        k(    8) = (  -0.2500000   0.5000000  -0.2500000), wk =   0.0937500
        k(    9) = (   0.6250000  -0.3750000   0.6250000), wk =   0.0937500
        k(   10) = (   0.5000000  -0.2500000   0.5000000), wk =   0.0937500
        k(   11) = (   0.3750000  -0.1250000   0.3750000), wk =   0.0937500
        k(   12) = (   0.2500000   0.0000000   0.2500000), wk =   0.0468750
        k(   13) = (   0.0000000   0.5000000   0.0000000), wk =   0.0234375
        k(   14) = (  -0.1250000   0.6250000  -0.1250000), wk =   0.0937500
        k(   15) = (   0.7500000  -0.2500000   0.7500000), wk =   0.0937500
        k(   16) = (   0.6250000  -0.1250000   0.6250000), wk =   0.0937500
        k(   17) = (   0.5000000   0.0000000   0.5000000), wk =   0.0468750
        k(   18) = (   0.0000000   0.7500000   0.0000000), wk =   0.0234375
        k(   19) = (   0.8750000  -0.1250000   0.8750000), wk =   0.0937500
        k(   20) = (   0.7500000   0.0000000   0.7500000), wk =   0.0468750
        k(   21) = (   0.0000000  -1.0000000   0.0000000), wk =   0.0117188
        k(   22) = (  -0.2500000   0.5000000   0.0000000), wk =   0.0937500
        k(   23) = (   0.6250000  -0.3750000   0.8750000), wk =   0.1875000
        k(   24) = (   0.5000000  -0.2500000   0.7500000), wk =   0.0937500
        k(   25) = (   0.7500000  -0.2500000   1.0000000), wk =   0.0937500
        k(   26) = (   0.6250000  -0.1250000   0.8750000), wk =   0.1875000
        k(   27) = (   0.5000000   0.0000000   0.7500000), wk =   0.0937500
        k(   28) = (  -0.2500000  -1.0000000   0.0000000), wk =   0.0468750
        k(   29) = (  -0.5000000  -1.0000000   0.0000000), wk =   0.0234375

                       cryst. coord.
        k(    1) = (   0.0000000   0.0000000   0.0000000), wk =   0.0039062
        k(    2) = (   0.0000000   0.0000000   0.1250000), wk =   0.0312500
        k(    3) = (   0.0000000   0.0000000   0.2500000), wk =   0.0312500
        k(    4) = (   0.0000000   0.0000000   0.3750000), wk =   0.0312500
        k(    5) = (   0.0000000   0.0000000  -0.5000000), wk =   0.0156250
        k(    6) = (   0.0000000   0.1250000   0.1250000), wk =   0.0234375
        k(    7) = (   0.0000000   0.1250000   0.2500000), wk =   0.0937500
        k(    8) = (   0.0000000   0.1250000   0.3750000), wk =   0.0937500
        k(    9) = (   0.0000000   0.1250000  -0.5000000), wk =   0.0937500
        k(   10) = (   0.0000000   0.1250000  -0.3750000), wk =   0.0937500
        k(   11) = (   0.0000000   0.1250000  -0.2500000), wk =   0.0937500
        k(   12) = (   0.0000000   0.1250000  -0.1250000), wk =   0.0468750
        k(   13) = (   0.0000000   0.2500000   0.2500000), wk =   0.0234375
        k(   14) = (   0.0000000   0.2500000   0.3750000), wk =   0.0937500
        k(   15) = (   0.0000000   0.2500000  -0.5000000), wk =   0.0937500
        k(   16) = (   0.0000000   0.2500000  -0.3750000), wk =   0.0937500
        k(   17) = (   0.0000000   0.2500000  -0.2500000), wk =   0.0468750
        k(   18) = (   0.0000000   0.3750000   0.3750000), wk =   0.0234375
        k(   19) = (   0.0000000   0.3750000  -0.5000000), wk =   0.0937500
        k(   20) = (   0.0000000   0.3750000  -0.3750000), wk =   0.0468750
        k(   21) = (   0.0000000  -0.5000000  -0.5000000), wk =   0.0117188
        k(   22) = (   0.1250000   0.2500000   0.3750000), wk =   0.0937500
        k(   23) = (   0.1250000   0.2500000  -0.5000000), wk =   0.1875000
        k(   24) = (   0.1250000   0.2500000  -0.3750000), wk =   0.0937500
        k(   25) = (   0.1250000   0.3750000  -0.5000000), wk =   0.0937500
        k(   26) = (   0.1250000   0.3750000  -0.3750000), wk =   0.1875000
        k(   27) = (   0.1250000   0.3750000  -0.2500000), wk =   0.0937500
        k(   28) = (   0.1250000  -0.5000000  -0.3750000), wk =   0.0468750
        k(   29) = (   0.2500000  -0.5000000  -0.2500000), wk =   0.0234375

     Dense  grid:    18643 G-vectors     FFT dimensions: (  40,  40,  40)

     Dynamical RAM for                 wfc:       1.07 MB

     Dynamical RAM for     wfc (w. buffer):      32.00 MB

     Dynamical RAM for           str. fact:       0.85 MB

     Dynamical RAM for           local pot:       0.00 MB

     Dynamical RAM for          nlocal pot:       1.92 MB

     Dynamical RAM for                qrad:       3.41 MB

     Dynamical RAM for          rho,v,vnew:       2.32 MB

     Dynamical RAM for               rhoin:       0.77 MB

     Dynamical RAM for            rho*nmix:       4.55 MB

     Dynamical RAM for           G-vectors:       1.21 MB

     Dynamical RAM for          h,s,v(r/c):       0.16 MB

     Dynamical RAM for          <psi|beta>:       0.02 MB

     Dynamical RAM for                 psi:       2.13 MB

     Dynamical RAM for                hpsi:       2.13 MB

     Dynamical RAM for                spsi:       2.13 MB

     Dynamical RAM for      wfcinit/wfcrot:       2.15 MB

     Dynamical RAM for           addusdens:      53.20 MB

     Estimated static dynamical RAM per process >      50.61 MB

     Estimated max dynamical RAM per process >     103.81 MB

     Check: negative core charge=   -0.000004

     Initial potential from superposition of free atoms

     starting charge   30.99935, renormalised to   31.00000
     Starting wfcs are   27 randomized atomic wfcs +    3 random wfcs
     Checking if some PAW data can be deallocated... 

     total cpu time spent up to now is        2.9 secs

     Self-consistent Calculation

     iteration #  1     ecut=    50.00 Ry     beta= 0.70
     Davidson diagonalization with overlap
     ethr =  1.00E-02,  avg # of iterations =  5.6

     total cpu time spent up to now is        9.3 secs

     total energy              =   -1144.37210113 Ry
     estimated scf accuracy    <       2.04186331 Ry

     iteration #  2     ecut=    50.00 Ry     beta= 0.70
     Davidson diagonalization with overlap
     ethr =  6.59E-03,  avg # of iterations =  2.1

     total cpu time spent up to now is       15.5 secs

     total energy              =   -1142.82654930 Ry
     estimated scf accuracy    <      54.23823407 Ry

     iteration #  3     ecut=    50.00 Ry     beta= 0.70
     Davidson diagonalization with overlap
     ethr =  6.59E-03,  avg # of iterations =  2.0

     total cpu time spent up to now is       20.7 secs

     total energy              =   -1145.85035156 Ry
     estimated scf accuracy    <       0.88466914 Ry

     iteration #  4     ecut=    50.00 Ry     beta= 0.70
     Davidson diagonalization with overlap
     ethr =  2.85E-03,  avg # of iterations =  1.0

     total cpu time spent up to now is       25.4 secs

     total energy              =   -1145.94494164 Ry
     estimated scf accuracy    <       0.30803896 Ry

     iteration #  5     ecut=    50.00 Ry     beta= 0.70
     Davidson diagonalization with overlap
     ethr =  9.94E-04,  avg # of iterations =  1.1

     total cpu time spent up to now is       30.0 secs

     total energy              =   -1145.95042003 Ry
     estimated scf accuracy    <       0.08746070 Ry

     iteration #  6     ecut=    50.00 Ry     beta= 0.70
     Davidson diagonalization with overlap
     ethr =  2.82E-04,  avg # of iterations =  1.3

     total cpu time spent up to now is       34.8 secs

     total energy              =   -1145.95522524 Ry
     estimated scf accuracy    <       0.00452685 Ry

     iteration #  7     ecut=    50.00 Ry     beta= 0.70
     Davidson diagonalization with overlap
     ethr =  1.46E-05,  avg # of iterations =  6.5

     total cpu time spent up to now is       40.8 secs

     total energy              =   -1145.95627842 Ry
     estimated scf accuracy    <       0.00528171 Ry

     iteration #  8     ecut=    50.00 Ry     beta= 0.70
     Davidson diagonalization with overlap
     ethr =  1.46E-05,  avg # of iterations =  1.0

     total cpu time spent up to now is       45.5 secs

     total energy              =   -1145.95666965 Ry
     estimated scf accuracy    <       0.00006474 Ry

     iteration #  9     ecut=    50.00 Ry     beta= 0.70
     Davidson diagonalization with overlap
     ethr =  2.09E-07,  avg # of iterations =  5.2

     total cpu time spent up to now is       52.0 secs

     total energy              =   -1145.95672222 Ry
     estimated scf accuracy    <       0.00003418 Ry

     iteration # 10     ecut=    50.00 Ry     beta= 0.70
     Davidson diagonalization with overlap
     ethr =  1.10E-07,  avg # of iterations =  1.0

     total cpu time spent up to now is       56.7 secs

     total energy              =   -1145.95671510 Ry
     estimated scf accuracy    <       0.00003492 Ry

     iteration # 11     ecut=    50.00 Ry     beta= 0.70
     Davidson diagonalization with overlap
     ethr =  1.10E-07,  avg # of iterations =  1.0

     total cpu time spent up to now is       61.4 secs

     total energy              =   -1145.95671822 Ry
     estimated scf accuracy    <       0.00000085 Ry

     iteration # 12     ecut=    50.00 Ry     beta= 0.70
     Davidson diagonalization with overlap
     ethr =  2.76E-09,  avg # of iterations =  2.2

     total cpu time spent up to now is       66.3 secs

     End of self-consistent calculation

          k = 0.0000 0.0000 0.0000 (  2277 PWs)   bands (ev):

     1.2353   4.7055   4.7055   5.0131   5.0131   5.0131   5.9109   5.9109
     5.9109   6.8685   6.8685   7.1170   7.1170   7.1170   7.5118   7.5118
    14.4969  14.4969  14.4969  14.9676  16.5340  16.6070  16.6070  16.6070
    19.1675  19.1675  19.1675  22.5501  23.0723  23.0723

     occupation numbers 
     1.0000   1.0000   1.0000   1.0000   1.0000   1.0000   1.0000   1.0000
     1.0000   1.0000   1.0000   1.0000   1.0000   1.0000   1.0272   1.0272
    -0.0000  -0.0000  -0.0000  -0.0000  -0.0000  -0.0000  -0.0000  -0.0000
    -0.0000  -0.0000  -0.0000  -0.0000  -0.0000  -0.0000

          k =-0.1250 0.1250-0.1250 (  2331 PWs)   bands (ev):

     1.4367   4.7561   4.7561   4.9794   5.0594   5.0594   5.8908   5.8908
     5.9618   6.7852   6.7852   6.9536   7.1049   7.1049   7.5223   7.5223
    12.5238  14.3545  14.3545  15.3728  16.6223  16.6223  16.6439  17.4549
    19.1688  19.1688  19.8990  23.7174  23.7544  23.7544

     occupation numbers 
     1.0000   1.0000   1.0000   1.0000   1.0000   1.0000   1.0000   1.0000
     1.0000   1.0000   1.0000   1.0000   1.0000   1.0000   1.0332   1.0332
    -0.0000  -0.0000  -0.0000  -0.0000  -0.0000  -0.0000  -0.0000  -0.0000
    -0.0000  -0.0000  -0.0000  -0.0000  -0.0000  -0.0000

          k =-0.2500 0.2500-0.2500 (  2328 PWs)   bands (ev):

     2.0178   4.8991   4.8991   4.9350   5.1756   5.1756   5.8424   5.8424
     6.0362   6.5362   6.5551   6.5551   7.1098   7.1098   7.5236   7.5236
    10.3087  14.0760  14.0760  14.9740  16.3782  16.3782  16.8842  18.3504
    19.7628  19.7628  22.5974  25.2897  25.2897  26.2025

     occupation numbers 
     1.0000   1.0000   1.0000   1.0000   1.0000   1.0000   1.0000   1.0000
     1.0000   1.0000   1.0000   1.0000   1.0000   1.0000   1.0338   1.0338
    -0.0000  -0.0000  -0.0000  -0.0000  -0.0000  -0.0000  -0.0000  -0.0000
    -0.0000  -0.0000  -0.0000  -0.0000  -0.0000  -0.0000

          k =-0.3750 0.3750-0.3750 (  2340 PWs)   bands (ev):

     2.8702   4.9228   5.0880   5.0880   5.3015   5.3015   5.7575   5.7996
     5.7996   6.2692   6.2698   6.2698   7.1413   7.1413   7.4966   7.4966
     8.6393  13.8395  13.8395  14.7210  16.0195  16.0195  16.5084  20.3668
    21.0415  21.0415  25.2861  25.5411  25.5411  26.7439

     occupation numbers 
     1.0000   1.0000   1.0000   1.0000   1.0000   1.0000   1.0000   1.0000
     1.0000   1.0000   1.0000   1.0000   1.0000   1.0000   1.0171   1.0171
    -0.0000  -0.0000  -0.0000  -0.0000  -0.0000  -0.0000  -0.0000  -0.0000
    -0.0000  -0.0000  -0.0000  -0.0000  -0.0000  -0.0000

          k = 0.5000-0.5000 0.5000 (  2332 PWs)   bands (ev):

     3.4716   4.8450   5.1916   5.1916   5.3596   5.3596   5.3907   5.7955
     5.7955   6.1095   6.1095   6.2611   7.1632   7.1632   7.4758   7.4758
     8.0067  13.7462  13.7462  14.6350  15.8732  15.8732  16.3764  22.1208
    22.1208  22.2943  23.6665  24.2349  24.2349  28.5774

     occupation numbers 
     1.0000   1.0000   1.0000   1.0000   1.0000   1.0000   1.0000   1.0000
     1.0000   1.0000   1.0000   1.0000   1.0000   1.0000   1.0070   1.0070
    -0.0000  -0.0000  -0.0000  -0.0000  -0.0000  -0.0000  -0.0000  -0.0000
    -0.0000  -0.0000  -0.0000  -0.0000  -0.0000  -0.0000

          k = 0.0000 0.2500 0.0000 (  2321 PWs)   bands (ev):

     1.5027   4.7557   4.7771   4.9425   5.0860   5.0860   5.8270   5.9543
     5.9543   6.6753   6.8631   7.0524   7.0597   7.0597   7.4538   7.5615
    13.2062  13.4462  13.4462  14.8893  16.6157  17.2840  17.4261  17.4261
    19.1095  20.0175  20.0175  22.8413  23.0832  25.3696

     occupation numbers 
     1.0000   1.0000   1.0000   1.0000   1.0000   1.0000   1.0000   1.0000
     1.0000   1.0000   1.0000   1.0000   1.0000   1.0000   1.0021   0.9850
    -0.0000  -0.0000  -0.0000  -0.0000  -0.0000  -0.0000  -0.0000  -0.0000
    -0.0000  -0.0000  -0.0000  -0.0000  -0.0000  -0.0000

          k =-0.1250 0.3750-0.1250 (  2327 PWs)   bands (ev):

     1.9540   4.7997   4.8893   4.9116   5.1798   5.1973   5.6973   5.9730
     6.0131   6.5104   6.7248   6.8020   7.0696   7.0986   7.4136   7.5787
    11.1084  12.8205  13.5501  14.3762  16.4906  17.2678  17.7358  18.4830
    19.8546  20.7380  21.7685  23.8192  24.0526  27.4088

     occupation numbers 
     1.0000   1.0000   1.0000   1.0000   1.0000   1.0000   1.0000   1.0000
     1.0000   1.0000   1.0000   1.0000   1.0000   1.0000   1.0001   0.8848
    -0.0000  -0.0000  -0.0000  -0.0000  -0.0000  -0.0000  -0.0000  -0.0000
    -0.0000  -0.0000  -0.0000  -0.0000  -0.0000  -0.0000

          k =-0.2500 0.5000-0.2500 (  2351 PWs)   bands (ev):

     2.7194   4.7964   4.9730   5.0548   5.2972   5.3663   5.5923   5.9447
     5.9741   6.3243   6.4244   6.4908   7.1206   7.1236   7.4130   7.5649
     9.1601  12.5826  12.8687  14.4225  16.6251  17.4590  17.8818  18.4815
    21.3600  21.7818  24.4802  24.7195  25.7580  26.8624

     occupation numbers 
     1.0000   1.0000   1.0000   1.0000   1.0000   1.0000   1.0000   1.0000
     1.0000   1.0000   1.0000   1.0000   1.0000   1.0000   1.0001   0.9699
    -0.0000  -0.0000  -0.0000  -0.0000  -0.0000  -0.0000  -0.0000  -0.0000
    -0.0000  -0.0000  -0.0000  -0.0000  -0.0000  -0.0000

          k = 0.6250-0.3750 0.6250 (  2338 PWs)   bands (ev):

     3.5080   4.6621   5.0539   5.1770   5.3413   5.4101   5.7141   5.8047
     5.8843   6.1265   6.1906   6.3549   7.1251   7.1677   7.4797   7.4977
     8.0635  12.2297  12.7854  14.4884  16.4535  17.0068  18.1709  19.9703
    22.2382  22.4893  23.9207  24.2574  26.4063  27.4612

     occupation numbers 
     1.0000   1.0000   1.0000   1.0000   1.0000   1.0000   1.0000   1.0000
     1.0000   1.0000   1.0000   1.0000   1.0000   1.0000   1.0084   1.0178
    -0.0000  -0.0000  -0.0000  -0.0000  -0.0000  -0.0000  -0.0000  -0.0000
    -0.0000  -0.0000  -0.0000  -0.0000  -0.0000  -0.0000

          k = 0.5000-0.2500 0.5000 (  2333 PWs)   bands (ev):

     3.2865   4.7506   5.0745   5.1532   5.3678   5.4174   5.6164   5.7447
     5.9331   6.1394   6.2207   6.4173   7.1062   7.1891   7.4031   7.5623
     8.3273  11.8632  13.4159  14.7206  16.3264  16.5980  18.3817  20.2996
    20.6456  22.2466  24.4248  25.4997  25.9567  26.8175

     occupation numbers 
     1.0000   1.0000   1.0000   1.0000   1.0000   1.0000   1.0000   1.0000
     1.0000   1.0000   1.0000   1.0000   1.0000   1.0000   1.0001   0.9815
    -0.0000  -0.0000  -0.0000  -0.0000  -0.0000  -0.0000  -0.0000  -0.0000
    -0.0000  -0.0000  -0.0000  -0.0000  -0.0000  -0.0000

          k = 0.3750-0.1250 0.3750 (  2335 PWs)   bands (ev):

     2.4398   4.8478   4.9545   4.9957   5.2744   5.3192   5.7204   5.8284
     5.9873   6.3738   6.3867   6.6320   7.1005   7.1429   7.3794   7.6015
     9.7704  11.8606  14.3785  15.1924  16.1602  16.3314  17.9442  19.1546
    19.2374  22.2089  23.4423  24.4883  25.4750  27.1280

     occupation numbers 
     1.0000   1.0000   1.0000   1.0000   1.0000   1.0000   1.0000   1.0000
     1.0000   1.0000   1.0000   1.0000   1.0000   1.0000   1.0000   0.6601
    -0.0000  -0.0000  -0.0000  -0.0000  -0.0000  -0.0000  -0.0000  -0.0000
    -0.0000  -0.0000  -0.0000  -0.0000  -0.0000  -0.0000

          k = 0.2500 0.0000 0.2500 (  2311 PWs)   bands (ev):

     1.7640   4.8293   4.8356   4.9135   5.1271   5.1642   5.7998   5.9507
     5.9690   6.6109   6.6407   6.8703   7.0741   7.1086   7.4413   7.5840
    11.6024  12.4802  15.2530  15.6640  15.8635  16.1882  16.9878  18.6324
    18.7226  20.6336  21.2666  23.0528  25.2669  25.6358

     occupation numbers 
     1.0000   1.0000   1.0000   1.0000   1.0000   1.0000   1.0000   1.0000
     1.0000   1.0000   1.0000   1.0000   1.0000   1.0000   1.0009   0.8410
    -0.0000  -0.0000  -0.0000  -0.0000  -0.0000  -0.0000  -0.0000  -0.0000
    -0.0000  -0.0000  -0.0000  -0.0000  -0.0000  -0.0000

          k = 0.0000 0.5000 0.0000 (  2333 PWs)   bands (ev):

     2.2570   4.6820   4.8970   4.9677   5.2453   5.2453   5.5242   6.0584
     6.0584   6.4896   6.8463   6.9922   7.0201   7.0201   7.3003   7.5769
    11.8284  11.8284  12.1722  12.6304  15.8519  18.8639  18.8639  20.2637
    21.0246  21.9429  21.9429  23.1216  23.1591  28.3063

     occupation numbers 
     1.0000   1.0000   1.0000   1.0000   1.0000   1.0000   1.0000   1.0000
     1.0000   1.0000   1.0000   1.0000   1.0000   1.0000   1.0000   0.8983
    -0.0000  -0.0000  -0.0000  -0.0000  -0.0000  -0.0000  -0.0000  -0.0000
    -0.0000  -0.0000  -0.0000  -0.0000  -0.0000  -0.0000

          k =-0.1250 0.6250-0.1250 (  2337 PWs)   bands (ev):

     2.8717   4.6125   4.8161   5.0965   5.3386   5.3418   5.5045   6.0572
     6.0797   6.4504   6.6800   6.8264   7.0674   7.1298   7.3190   7.5865
     9.8976  11.2631  11.3115  13.2159  16.1027  18.9101  19.2214  20.9680
    22.2915  22.8054  23.6262  23.7547  24.7554  26.6694

     occupation numbers 
     1.0000   1.0000   1.0000   1.0000   1.0000   1.0000   1.0000   1.0000
     1.0000   1.0000   1.0000   1.0000   1.0000   1.0000   1.0000   0.8187
    -0.0000  -0.0000  -0.0000  -0.0000  -0.0000  -0.0000  -0.0000  -0.0000
    -0.0000  -0.0000  -0.0000  -0.0000  -0.0000  -0.0000

          k = 0.7500-0.2500 0.7500 (  2327 PWs)   bands (ev):

     3.6252   4.4926   4.7925   5.1854   5.2747   5.4833   5.7037   5.9762
     6.1792   6.3470   6.3557   6.6777   7.0273   7.2452   7.4937   7.5786
     8.2960  10.4168  11.4041  13.7711  17.3534  18.5274  18.9182  20.8142
    22.5078  22.8030  24.3662  24.3783  26.2307  27.3674

     occupation numbers 
     1.0000   1.0000   1.0000   1.0000   1.0000   1.0000   1.0000   1.0000
     1.0000   1.0000   1.0000   1.0000   1.0000   1.0000   1.0153   0.8853
    -0.0000  -0.0000  -0.0000  -0.0000  -0.0000  -0.0000  -0.0000  -0.0000
    -0.0000  -0.0000  -0.0000  -0.0000  -0.0000  -0.0000

          k = 0.6250-0.1250 0.6250 (  2326 PWs)   bands (ev):

     3.8171   4.5062   4.9339   5.1483   5.1955   5.5849   5.7865   5.8977
     6.0204   6.1754   6.3465   6.5807   7.0293   7.2081   7.4915   7.6055
     8.2074   9.8821  12.0801  14.1364  17.8621  18.4540  19.4498  20.1646
    20.5857  21.6265  24.8924  26.0915  26.8033  27.4339

     occupation numbers 
     1.0000   1.0000   1.0000   1.0000   1.0000   1.0000   1.0000   1.0000
     1.0000   1.0000   1.0000   1.0000   1.0000   1.0000   1.0141   0.6124
    -0.0000  -0.0000  -0.0000  -0.0000  -0.0000  -0.0000  -0.0000  -0.0000
    -0.0000  -0.0000  -0.0000  -0.0000  -0.0000  -0.0000

          k = 0.5000 0.0000 0.5000 (  2325 PWs)   bands (ev):

     3.1328   4.7387   4.9696   5.1249   5.3549   5.4790   5.6828   5.7051
     6.0041   6.1674   6.3255   6.6519   7.0639   7.2163   7.3131   7.6341
     9.3612   9.9883  13.1686  14.5864  17.5009  17.5733  18.2255  19.3237
    21.0499  22.1488  23.5466  25.5139  25.9033  27.6865

     occupation numbers 
     1.0000   1.0000   1.0000   1.0000   1.0000   1.0000   1.0000   1.0000
     1.0000   1.0000   1.0000   1.0000   1.0000   1.0000   1.0000   0.2682
    -0.0000  -0.0000  -0.0000  -0.0000  -0.0000  -0.0000  -0.0000  -0.0000
    -0.0000  -0.0000  -0.0000  -0.0000  -0.0000  -0.0000

          k = 0.0000 0.7500 0.0000 (  2337 PWs)   bands (ev):

     3.2730   4.4419   4.7075   5.1945   5.3760   5.3760   5.5265   6.0895
     6.0895   6.5244   6.8142   6.9084   7.1259   7.2806   7.2806   7.6284
     9.7848  10.4322  10.4322  12.2258  15.4888  20.6979  20.6979  22.7840
    23.1852  23.5763  23.9386  23.9386  24.3543  26.5927

     occupation numbers 
     1.0000   1.0000   1.0000   1.0000   1.0000   1.0000   1.0000   1.0000
     1.0000   1.0000   1.0000   1.0000   1.0000   1.0000   1.0000   0.3326
    -0.0000  -0.0000  -0.0000  -0.0000  -0.0000  -0.0000  -0.0000  -0.0000
    -0.0000  -0.0000  -0.0000  -0.0000  -0.0000  -0.0000

          k = 0.8750-0.1250 0.8750 (  2330 PWs)   bands (ev):

     3.7789   4.3240   4.6866   5.2444   5.3159   5.4762   5.6500   6.0268
     6.2134   6.5071   6.7244   6.8402   6.9476   7.4922   7.5295   7.7618
     8.7284   9.2907  10.2695  12.8814  15.8665  20.6730  20.9641  22.6418
    22.7549  23.9603  24.5790  24.6721  25.7638  26.3733

     occupation numbers 
     1.0000   1.0000   1.0000   1.0000   1.0000   1.0000   1.0000   1.0000
     1.0000   1.0000   1.0000   1.0000   1.0000   1.0145   1.0354  -0.0045
    -0.0000  -0.0000  -0.0000  -0.0000  -0.0000  -0.0000  -0.0000  -0.0000
    -0.0000  -0.0000  -0.0000  -0.0000  -0.0000  -0.0000

          k = 0.7500 0.0000 0.7500 (  2329 PWs)   bands (ev):

     4.1758   4.2355   4.7621   5.1125   5.2234   5.6223   5.7354   5.9170
     6.3503   6.3888   6.5309   6.7313   6.9442   7.5721   7.6155   7.6690
     8.3019   8.5704  10.9226  13.6083  17.2570  19.9583  20.3880  20.5992
    20.9714  24.1325  24.3834  25.7599  26.3531  27.6636

     occupation numbers 
     1.0000   1.0000   1.0000   1.0000   1.0000   1.0000   1.0000   1.0000
     1.0000   1.0000   1.0000   1.0000   1.0000   0.9305   0.4883   0.0099
    -0.0000  -0.0000  -0.0000  -0.0000  -0.0000  -0.0000  -0.0000  -0.0000
    -0.0000  -0.0000  -0.0000  -0.0000  -0.0000  -0.0000

          k = 0.0000-1.0000 0.0000 (  2346 PWs)   bands (ev):

     3.8653   4.2000   4.7006   5.3055   5.4235   5.4235   5.6791   6.0662
     6.0662   6.5737   6.7857   6.8410   7.0516   7.5768   7.5768   8.0513
     8.2054   9.7691   9.7691  12.1511  15.3891  22.2185  22.2185  23.2233
    23.5122  23.9224  23.9224  24.4278  26.0575  26.0575

     occupation numbers 
     1.0000   1.0000   1.0000   1.0000   1.0000   1.0000   1.0000   1.0000
     1.0000   1.0000   1.0000   1.0000   1.0000   0.8989   0.8989  -0.0000
    -0.0000  -0.0000  -0.0000  -0.0000  -0.0000  -0.0000  -0.0000  -0.0000
    -0.0000  -0.0000  -0.0000  -0.0000  -0.0000  -0.0000

          k =-0.2500 0.5000 0.0000 (  2334 PWs)   bands (ev):

     2.4956   4.7483   4.8940   5.0342   5.2827   5.3327   5.5527   5.9788
     6.0266   6.4290   6.5184   6.7650   7.0803   7.1358   7.3249   7.6025
    10.3777  11.0784  12.8991  14.5768  16.6212  16.9210  18.6730  19.5821
    20.4375  22.5312  23.3638  23.5369  24.9395  26.7501

     occupation numbers 
     1.0000   1.0000   1.0000   1.0000   1.0000   1.0000   1.0000   1.0000
     1.0000   1.0000   1.0000   1.0000   1.0000   1.0000   1.0000   0.6479
    -0.0000  -0.0000  -0.0000  -0.0000  -0.0000  -0.0000  -0.0000  -0.0000
    -0.0000  -0.0000  -0.0000  -0.0000  -0.0000  -0.0000

          k = 0.6250-0.3750 0.8750 (  2333 PWs)   bands (ev):

     3.2686   4.6706   4.8673   5.1768   5.3618   5.3984   5.6577   5.8880
     6.0595   6.2234   6.3332   6.6447   7.0467   7.2204   7.3719   7.6041
     8.8143  10.6921  11.9567  15.1877  16.2591  17.7345  19.0538  20.1382
    21.3775  22.3168  24.3092  24.9267  25.9595  26.9808

     occupation numbers 
     1.0000   1.0000   1.0000   1.0000   1.0000   1.0000   1.0000   1.0000
     1.0000   1.0000   1.0000   1.0000   1.0000   1.0000   1.0000   0.6293
    -0.0000  -0.0000  -0.0000  -0.0000  -0.0000  -0.0000  -0.0000  -0.0000
    -0.0000  -0.0000  -0.0000  -0.0000  -0.0000  -0.0000

          k = 0.5000-0.2500 0.7500 (  2328 PWs)   bands (ev):

     3.8190   4.4666   4.9168   5.1561   5.3720   5.4509   5.8083   5.8456
     6.0167   6.1483   6.3564   6.5041   7.0265   7.2846   7.4687   7.5747
     7.9714  10.7942  11.4718  15.3559  15.9908  18.9399  19.3740  20.0562
    20.5036  22.8294  23.8863  26.4692  26.7059  26.9925

     occupation numbers 
     1.0000   1.0000   1.0000   1.0000   1.0000   1.0000   1.0000   1.0000
     1.0000   1.0000   1.0000   1.0000   1.0000   1.0000   1.0049   0.9141
    -0.0000  -0.0000  -0.0000  -0.0000  -0.0000  -0.0000  -0.0000  -0.0000
    -0.0000  -0.0000  -0.0000  -0.0000  -0.0000  -0.0000

          k = 0.7500-0.2500 1.0000 (  2337 PWs)   bands (ev):

     3.4661   4.5134   4.7036   5.1863   5.3190   5.4555   5.6167   6.0266
     6.1584   6.4338   6.5418   6.8191   6.9716   7.3220   7.4192   7.6309
     9.3342   9.8447  10.4343  13.9003  16.2845  18.4002  20.9103  21.8408
    22.6027  22.8949  23.6585  24.9918  25.5856  26.7231

     occupation numbers 
     1.0000   1.0000   1.0000   1.0000   1.0000   1.0000   1.0000   1.0000
     1.0000   1.0000   1.0000   1.0000   1.0000   1.0000   1.0002   0.3036
    -0.0000  -0.0000  -0.0000  -0.0000  -0.0000  -0.0000  -0.0000  -0.0000
    -0.0000  -0.0000  -0.0000  -0.0000  -0.0000  -0.0000

          k = 0.6250-0.1250 0.8750 (  2326 PWs)   bands (ev):

     4.0444   4.3672   4.7387   5.0745   5.3436   5.5939   5.7250   5.9435
     6.1695   6.3656   6.4728   6.7639   6.9214   7.5233   7.6077   7.7536
     8.1387   9.3352  10.1818  14.7977  17.3822  17.8107  19.9262  21.2663
    22.6827  23.3971  24.0652  25.5867  26.2678  26.7384

     occupation numbers 
     1.0000   1.0000   1.0000   1.0000   1.0000   1.0000   1.0000   1.0000
     1.0000   1.0000   1.0000   1.0000   1.0000   1.0337   0.5850  -0.0069
    -0.0000  -0.0000  -0.0000  -0.0000  -0.0000  -0.0000  -0.0000  -0.0000
    -0.0000  -0.0000  -0.0000  -0.0000  -0.0000  -0.0000

          k = 0.5000 0.0000 0.7500 (  2320 PWs)   bands (ev):

     3.8879   4.4973   4.8016   5.0729   5.3876   5.5624   5.7570   5.8718
     6.0180   6.3183   6.3984   6.7154   6.9556   7.3434   7.5071   7.6463
     8.7071   9.0756  10.9073  15.4300  16.7987  18.2097  19.5220  20.9084
    21.3308  22.9054  23.8557  26.2501  26.3498  27.7807

     occupation numbers 
     1.0000   1.0000   1.0000   1.0000   1.0000   1.0000   1.0000   1.0000
     1.0000   1.0000   1.0000   1.0000   1.0000   1.0000   1.0240   0.1489
    -0.0000  -0.0000  -0.0000  -0.0000  -0.0000  -0.0000  -0.0000  -0.0000
    -0.0000  -0.0000  -0.0000  -0.0000  -0.0000  -0.0000

          k =-0.2500-1.0000 0.0000 (  2324 PWs)   bands (ev):

     4.0351   4.2728   4.6974   5.1730   5.2863   5.5697   5.6700   6.0140
     6.3541   6.4891   6.5918   6.7978   6.8771   7.5887   7.6439   8.1509
     8.1912   9.2234   9.3875  13.6943  16.1683  19.8344  20.6377  22.6255
    23.4658  23.7174  25.0550  25.1210  25.5986  25.9576

     occupation numbers 
     1.0000   1.0000   1.0000   1.0000   1.0000   1.0000   1.0000   1.0000
     1.0000   1.0000   1.0000   1.0000   1.0000   0.7980   0.1699  -0.0000
    -0.0000  -0.0000  -0.0000  -0.0000  -0.0000  -0.0000  -0.0000  -0.0000
    -0.0000  -0.0000  -0.0000  -0.0000  -0.0000  -0.0000

          k =-0.5000-1.0000 0.0000 (  2328 PWs)   bands (ev):

     4.2343   4.3774   4.6952   4.9461   5.5276   5.5960   5.7017   5.9678
     5.9815   6.3885   6.5657   6.8137   6.8764   7.5946   7.7036   8.1766
     8.4118   8.8668   8.9612  16.5299  16.5821  17.9478  18.2172  23.2780
    23.4804  23.7363  24.7118  24.7826  25.0348  26.1086

     occupation numbers 
     1.0000   1.0000   1.0000   1.0000   1.0000   1.0000   1.0000   1.0000
     1.0000   1.0000   1.0000   1.0000   1.0000   0.7367  -0.0345  -0.0000
    -0.0000  -0.0000  -0.0000  -0.0000  -0.0000  -0.0000  -0.0000  -0.0000
    -0.0000  -0.0000  -0.0000  -0.0000  -0.0000  -0.0000

     the Fermi energy is     7.6146 ev

!    total energy              =   -1145.95671828 Ry

     total all-electron energy =    -43178.916097 Ry
     estimated scf accuracy    <       0.00000005 Ry
     smearing contrib. (-TS)   =      -0.00048631 Ry
     internal energy E=F+TS    =   -1145.95623198 Ry

     The total energy is F=E-TS. E is the sum of the following terms:
     one-electron contribution =     -77.03522113 Ry
     hartree contribution      =      77.02225112 Ry
     xc contribution           =    -109.82159006 Ry
     ewald contribution        =    -176.57716104 Ry
     one-center paw contrib.   =    -859.54451087 Ry
      -> PAW hartree energy AE =     219.84631706 Ry
      -> PAW hartree energy PS =    -218.71456005 Ry
      -> PAW xc energy AE      =    -969.76412396 Ry
      -> PAW xc energy PS      =     109.08785608 Ry
      -> total E_H with PAW    =      78.15400813 Ry
      -> total E_XC with PAW   =    -970.49785793 Ry

     convergence has been achieved in  12 iterations

     Writing output data file ././CuPtNi.save/

     init_run     :      3.69s CPU      2.66s WALL (       1 calls)
     electrons    :    104.53s CPU     63.46s WALL (       1 calls)

     Called by init_run:
     wfcinit      :      2.51s CPU      1.50s WALL (       1 calls)
     wfcinit:atom :      0.05s CPU      0.02s WALL (      29 calls)
     wfcinit:wfcr :      2.35s CPU      1.43s WALL (      29 calls)
     potinit      :      0.35s CPU      0.37s WALL (       1 calls)
     hinit0       :      0.70s CPU      0.66s WALL (       1 calls)

     Called by electrons:
     c_bands      :     77.14s CPU     44.53s WALL (      12 calls)
     sum_band     :     20.90s CPU     12.46s WALL (      12 calls)
     v_of_rho     :      0.64s CPU      0.40s WALL (      13 calls)
     v_h          :      0.05s CPU      0.03s WALL (      13 calls)
     v_xc         :      0.59s CPU      0.37s WALL (      13 calls)
     newd         :      1.44s CPU      1.36s WALL (      13 calls)
     PAW_pot      :      4.67s CPU      4.49s WALL (      13 calls)
     mix_rho      :      0.09s CPU      0.06s WALL (      12 calls)

     Called by c_bands:
     init_us_2    :      1.64s CPU      0.81s WALL (     725 calls)
     cegterg      :     71.23s CPU     41.22s WALL (     348 calls)

     Called by sum_band:
     sum_band:wei :      0.04s CPU      0.01s WALL (      12 calls)
     sum_band:loo :     17.87s CPU     10.86s WALL (      12 calls)
     sum_band:buf :      0.09s CPU      0.05s WALL (     348 calls)
     sum_band:ini :      0.72s CPU      0.39s WALL (     348 calls)
     sum_band:cal :      0.31s CPU      0.19s WALL (     348 calls)
     sum_band:bec :      0.01s CPU      0.01s WALL (     348 calls)
     addusdens    :      2.91s CPU      1.53s WALL (      12 calls)
     addusd:skk   :      0.01s CPU      0.00s WALL (      36 calls)
     addusd:dgemm :      1.59s CPU      0.61s WALL (      36 calls)
     addusd:qvan2 :      1.12s CPU      0.70s WALL (      36 calls)

     Called by *egterg:
     cdiaghg      :      2.73s CPU      1.09s WALL (    1221 calls)
     cegterg:over :      1.53s CPU      0.58s WALL (     873 calls)
     cegterg:upda :      1.20s CPU      0.45s WALL (     873 calls)
     cegterg:last :      1.66s CPU      0.59s WALL (     577 calls)
     h_psi        :     63.58s CPU     38.78s WALL (    1250 calls)
     s_psi        :      1.08s CPU      0.45s WALL (    1250 calls)
     g_psi        :      0.56s CPU      0.20s WALL (     873 calls)

     Called by h_psi:
     h_psi:calbec :      1.09s CPU      0.78s WALL (    1250 calls)
     vloc_psi     :     61.00s CPU     37.31s WALL (    1250 calls)
     add_vuspsi   :      1.05s CPU      0.49s WALL (    1250 calls)

     General routines
     calbec       :      1.40s CPU      0.96s WALL (    1598 calls)
     fft          :      0.31s CPU      0.21s WALL (     143 calls)
     ffts         :      0.01s CPU      0.01s WALL (      12 calls)
     fftw         :     68.23s CPU     41.77s WALL (   60926 calls)

     Parallel routines

     PAW routines
     PAW_pot      :      4.67s CPU      4.49s WALL (      13 calls)
     PAW_symme    :      0.01s CPU      0.01s WALL (      25 calls)

     PWSCF        :   1m48.48s CPU   1m 6.45s WALL


   This run was terminated on:  13: 7:26  22May2024            

=------------------------------------------------------------------------------=
   JOB DONE.
=------------------------------------------------------------------------------=
