
     Program PWSCF v.6.7MaX starts on 22May2024 at 13: 1:41 

     This program is part of the open-source Quantum ESPRESSO suite
     for quantum simulation of materials; please cite
         "P. Giannozzi et al., J. Phys.:Condens. Matter 21 395502 (2009);
         "P. Giannozzi et al., J. Phys.:Condens. Matter 29 465901 (2017);
          URL http://www.quantum-espresso.org", 
     in publications or presentations arising from this work. More details at
     http://www.quantum-espresso.org/quote

     Parallel version (MPI), running on     1 processors

     MPI processes distributed on     1 nodes
     Waiting for input...
     Reading input from standard input

     Current dimensions of program PWSCF are:
     Max number of different atomic species (ntypx) = 10
     Max number of k-points (npk) =  40000
     Max angular momentum in pseudopotentials (lmaxx) =  3
     file Cu.UPF: wavefunction(s)  4S 3D renormalized
     file Pt.UPF: wavefunction(s)  6S 5D renormalized
     file Ni.UPF: wavefunction(s)  4S 3D renormalized

     Subspace diagonalization in iterative solution of the eigenvalue problem:
     a serial algorithm will be used


     G-vector sticks info
     --------------------
     sticks:   dense  smooth     PW     G-vecs:    dense   smooth      PW
     Sum         847     847    253                16361    16361    2733



     bravais-lattice index     =            2
     lattice parameter (alat)  =      11.1000  a.u.
     unit-cell volume          =     341.9077 (a.u.)^3
     number of atoms/cell      =            3
     number of atomic types    =            3
     number of electrons       =        31.00
     number of Kohn-Sham states=           30
     kinetic-energy cutoff     =      50.0000  Ry
     charge density cutoff     =     200.0000  Ry
     scf convergence threshold =      1.0E-07
     mixing beta               =       0.7000
     number of iterations used =            8  plain     mixing
     Exchange-correlation= SLA  PW   PBX  PBC
                           (   1   4   3   4   0   0   0)

     celldm(1)=  11.100000  celldm(2)=   0.000000  celldm(3)=   0.000000
     celldm(4)=   0.000000  celldm(5)=   0.000000  celldm(6)=   0.000000

     crystal axes: (cart. coord. in units of alat)
               a(1) = (  -0.500000   0.000000   0.500000 )  
               a(2) = (   0.000000   0.500000   0.500000 )  
               a(3) = (  -0.500000   0.500000   0.000000 )  

     reciprocal axes: (cart. coord. in units 2 pi/alat)
               b(1) = ( -1.000000 -1.000000  1.000000 )  
               b(2) = (  1.000000  1.000000  1.000000 )  
               b(3) = ( -1.000000  1.000000 -1.000000 )  


     PseudoPot. # 1 for Cu read from file:
     ././Cu.UPF
     MD5 check sum: cfffd1f38ee05704b3e17f46f1730a6f
     Pseudo is Projector augmented-wave + core cor, Zval = 11.0
     Generated using &quot;atomic&quot; code by A. Dal Corso  v.6.3
     Shape of augmentation charge: PSQ
     Using radial grid of 1199 points,  6 beta functions with: 
                l(1) =   0
                l(2) =   0
                l(3) =   1
                l(4) =   1
                l(5) =   2
                l(6) =   2
     Q(r) pseudized with 0 coefficients 


     PseudoPot. # 2 for Pt read from file:
     ././Pt.UPF
     MD5 check sum: c5224e9cd7a5e36e81f2def9f50bb494
     Pseudo is Projector augmented-wave + core cor, Zval = 10.0
     Generated using &quot;atomic&quot; code by A. Dal Corso  v.6.3
     Shape of augmentation charge: PSQ
     Using radial grid of 1277 points,  6 beta functions with: 
                l(1) =   0
                l(2) =   0
                l(3) =   1
                l(4) =   1
                l(5) =   2
                l(6) =   2
     Q(r) pseudized with 0 coefficients 


     PseudoPot. # 3 for Ni read from file:
     ././Ni.UPF
     MD5 check sum: 5bc40517020091042a126ac2b4ecef1e
     Pseudo is Projector augmented-wave + core cor, Zval = 10.0
     Generated using "atomic" code by A. Dal Corso  v.5.0.2 svn rev. 9415
     Shape of augmentation charge: PSQ
     Using radial grid of 1195 points,  6 beta functions with: 
                l(1) =   0
                l(2) =   0
                l(3) =   1
                l(4) =   1
                l(5) =   2
                l(6) =   2
     Q(r) pseudized with 0 coefficients 


     atomic species   valence    mass     pseudopotential
        Cu            11.00    63.54600     Cu( 1.00)
        Pt            10.00   195.08000     Pt( 1.00)
        Ni            10.00    58.69000     Ni( 1.00)

     24 Sym. Ops. (no inversion) found


                                    s                        frac. trans.

      isym =  1     identity                                     

 cryst.   s( 1) = (     1          0          0      )
                  (     0          1          0      )
                  (     0          0          1      )

 cart.    s( 1) = (  1.0000000  0.0000000  0.0000000 )
                  (  0.0000000  1.0000000  0.0000000 )
                  (  0.0000000  0.0000000  1.0000000 )


      isym =  2     180 deg rotation - cart. axis [0,0,1]        

 cryst.   s( 2) = (     0          1         -1      )
                  (     1          0         -1      )
                  (     0          0         -1      )

 cart.    s( 2) = ( -1.0000000  0.0000000  0.0000000 )
                  (  0.0000000 -1.0000000  0.0000000 )
                  (  0.0000000  0.0000000  1.0000000 )


      isym =  3     180 deg rotation - cart. axis [0,1,0]        

 cryst.   s( 3) = (    -1          0          0      )
                  (    -1          0          1      )
                  (    -1          1          0      )

 cart.    s( 3) = ( -1.0000000  0.0000000  0.0000000 )
                  (  0.0000000  1.0000000  0.0000000 )
                  (  0.0000000  0.0000000 -1.0000000 )


      isym =  4     180 deg rotation - cart. axis [1,0,0]        

 cryst.   s( 4) = (     0         -1          1      )
                  (     0         -1          0      )
                  (     1         -1          0      )

 cart.    s( 4) = (  1.0000000  0.0000000  0.0000000 )
                  (  0.0000000 -1.0000000  0.0000000 )
                  (  0.0000000  0.0000000 -1.0000000 )


      isym =  5     120 deg rotation - cart. axis [-1,-1,-1]     

 cryst.   s( 5) = (    -1          0          1      )
                  (    -1          1          0      )
                  (    -1          0          0      )

 cart.    s( 5) = (  0.0000000  1.0000000  0.0000000 )
                  (  0.0000000  0.0000000  1.0000000 )
                  (  1.0000000  0.0000000  0.0000000 )


      isym =  6     120 deg rotation - cart. axis [-1,1,1]       

 cryst.   s( 6) = (     0          1          0      )
                  (     0          0          1      )
                  (     1          0          0      )

 cart.    s( 6) = (  0.0000000 -1.0000000  0.0000000 )
                  (  0.0000000  0.0000000  1.0000000 )
                  ( -1.0000000  0.0000000  0.0000000 )


      isym =  7     120 deg rotation - cart. axis [1,1,-1]       

 cryst.   s( 7) = (     1          0         -1      )
                  (     0          0         -1      )
                  (     0          1         -1      )

 cart.    s( 7) = (  0.0000000  1.0000000  0.0000000 )
                  (  0.0000000  0.0000000 -1.0000000 )
                  ( -1.0000000  0.0000000  0.0000000 )


      isym =  8     120 deg rotation - cart. axis [1,-1,1]       

 cryst.   s( 8) = (     0         -1          0      )
                  (     1         -1          0      )
                  (     0         -1          1      )

 cart.    s( 8) = (  0.0000000 -1.0000000  0.0000000 )
                  (  0.0000000  0.0000000 -1.0000000 )
                  (  1.0000000  0.0000000  0.0000000 )


      isym =  9     120 deg rotation - cart. axis [1,1,1]        

 cryst.   s( 9) = (     0          0         -1      )
                  (     0          1         -1      )
                  (     1          0         -1      )

 cart.    s( 9) = (  0.0000000  0.0000000  1.0000000 )
                  (  1.0000000  0.0000000  0.0000000 )
                  (  0.0000000  1.0000000  0.0000000 )


      isym = 10     120 deg rotation - cart. axis [-1,1,-1]      

 cryst.   s(10) = (    -1          1          0      )
                  (    -1          0          0      )
                  (    -1          0          1      )

 cart.    s(10) = (  0.0000000  0.0000000  1.0000000 )
                  ( -1.0000000  0.0000000  0.0000000 )
                  (  0.0000000 -1.0000000  0.0000000 )


      isym = 11     120 deg rotation - cart. axis [1,-1,-1]      

 cryst.   s(11) = (     0          0          1      )
                  (     1          0          0      )
                  (     0          1          0      )

 cart.    s(11) = (  0.0000000  0.0000000 -1.0000000 )
                  ( -1.0000000  0.0000000  0.0000000 )
                  (  0.0000000  1.0000000  0.0000000 )


      isym = 12     120 deg rotation - cart. axis [-1,-1,1]      

 cryst.   s(12) = (     1         -1          0      )
                  (     0         -1          1      )
                  (     0         -1          0      )

 cart.    s(12) = (  0.0000000  0.0000000 -1.0000000 )
                  (  1.0000000  0.0000000  0.0000000 )
                  (  0.0000000 -1.0000000  0.0000000 )


      isym = 13     inv. 180 deg rotation - cart. axis [1,1,0]   

 cryst.   s(13) = (     0          1          0      )
                  (     1          0          0      )
                  (     0          0          1      )

 cart.    s(13) = (  0.0000000 -1.0000000  0.0000000 )
                  ( -1.0000000  0.0000000  0.0000000 )
                  (  0.0000000  0.0000000  1.0000000 )


      isym = 14     inv. 180 deg rotation - cart. axis [1,-1,0]  

 cryst.   s(14) = (     1          0         -1      )
                  (     0          1         -1      )
                  (     0          0         -1      )

 cart.    s(14) = (  0.0000000  1.0000000  0.0000000 )
                  (  1.0000000  0.0000000  0.0000000 )
                  (  0.0000000  0.0000000  1.0000000 )


      isym = 15     inv.  90 deg rotation - cart. axis [0,0,-1]  

 cryst.   s(15) = (     0         -1          0      )
                  (     0         -1          1      )
                  (     1         -1          0      )

 cart.    s(15) = (  0.0000000 -1.0000000  0.0000000 )
                  (  1.0000000  0.0000000  0.0000000 )
                  (  0.0000000  0.0000000 -1.0000000 )


      isym = 16     inv.  90 deg rotation - cart. axis [0,0,1]   

 cryst.   s(16) = (    -1          0          1      )
                  (    -1          0          0      )
                  (    -1          1          0      )

 cart.    s(16) = (  0.0000000  1.0000000  0.0000000 )
                  ( -1.0000000  0.0000000  0.0000000 )
                  (  0.0000000  0.0000000 -1.0000000 )


      isym = 17     inv. 180 deg rotation - cart. axis [1,0,1]   

 cryst.   s(17) = (     1          0          0      )
                  (     0          0          1      )
                  (     0          1          0      )

 cart.    s(17) = (  0.0000000  0.0000000 -1.0000000 )
                  (  0.0000000  1.0000000  0.0000000 )
                  ( -1.0000000  0.0000000  0.0000000 )


      isym = 18     inv. 180 deg rotation - cart. axis [-1,0,1]  

 cryst.   s(18) = (    -1          0          0      )
                  (    -1          1          0      )
                  (    -1          0          1      )

 cart.    s(18) = (  0.0000000  0.0000000  1.0000000 )
                  (  0.0000000  1.0000000  0.0000000 )
                  (  1.0000000  0.0000000  0.0000000 )


      isym = 19     inv.  90 deg rotation - cart. axis [0,1,0]   

 cryst.   s(19) = (     0         -1          1      )
                  (     1         -1          0      )
                  (     0         -1          0      )

 cart.    s(19) = (  0.0000000  0.0000000 -1.0000000 )
                  (  0.0000000 -1.0000000  0.0000000 )
                  (  1.0000000  0.0000000  0.0000000 )


      isym = 20     inv.  90 deg rotation - cart. axis [0,-1,0]  

 cryst.   s(20) = (     0          1         -1      )
                  (     0          0         -1      )
                  (     1          0         -1      )

 cart.    s(20) = (  0.0000000  0.0000000  1.0000000 )
                  (  0.0000000 -1.0000000  0.0000000 )
                  ( -1.0000000  0.0000000  0.0000000 )


      isym = 21     inv. 180 deg rotation - cart. axis [0,1,1]   

 cryst.   s(21) = (     1         -1          0      )
                  (     0         -1          0      )
                  (     0         -1          1      )

 cart.    s(21) = (  1.0000000  0.0000000  0.0000000 )
                  (  0.0000000  0.0000000 -1.0000000 )
                  (  0.0000000 -1.0000000  0.0000000 )


      isym = 22     inv. 180 deg rotation - cart. axis [0,1,-1]  

 cryst.   s(22) = (     0          0          1      )
                  (     0          1          0      )
                  (     1          0          0      )

 cart.    s(22) = (  1.0000000  0.0000000  0.0000000 )
                  (  0.0000000  0.0000000  1.0000000 )
                  (  0.0000000  1.0000000  0.0000000 )


      isym = 23     inv.  90 deg rotation - cart. axis [-1,0,0]  

 cryst.   s(23) = (     0          0         -1      )
                  (     1          0         -1      )
                  (     0          1         -1      )

 cart.    s(23) = ( -1.0000000  0.0000000  0.0000000 )
                  (  0.0000000  0.0000000 -1.0000000 )
                  (  0.0000000  1.0000000  0.0000000 )


      isym = 24     inv.  90 deg rotation - cart. axis [1,0,0]   

 cryst.   s(24) = (    -1          1          0      )
                  (    -1          0          1      )
                  (    -1          0          0      )

 cart.    s(24) = ( -1.0000000  0.0000000  0.0000000 )
                  (  0.0000000  0.0000000  1.0000000 )
                  (  0.0000000 -1.0000000  0.0000000 )


     point group T_d (-43m) 
     there are  5 classes
     the character table:

       E     8C3   3C2   6S4   6s_d 
A_1    1.00  1.00  1.00  1.00  1.00
A_2    1.00  1.00  1.00 -1.00 -1.00
E      2.00 -1.00  2.00  0.00  0.00
T_1    3.00  0.00 -1.00  1.00 -1.00
T_2    3.00  0.00 -1.00 -1.00  1.00

     the symmetry operations in each class and the name of the first element:

     E        1
          identity                                               
     8C3      5    7    8    6   12    9   10   11
          120 deg rotation - cart. axis [-1,-1,-1]               
     3C2      2    3    4
          180 deg rotation - cart. axis [0,0,1]                  
     6S4     15   16   20   19   23   24
          inv.  90 deg rotation - cart. axis [0,0,-1]            
     6s_d    13   14   17   18   21   22
          inv. 180 deg rotation - cart. axis [1,1,0]             

   Cartesian axes

     site n.     atom                  positions (alat units)
         1           Cu  tau(   1) = (   0.0000000   0.0000000   0.0000000  )
         2           Pt  tau(   2) = (   0.5000000   0.5000000   0.5000000  )
         3           Ni  tau(   3) = (   0.2500000   0.2500000   0.2500000  )

   Crystallographic axes

     site n.     atom                  positions (cryst. coord.)
         1           Cu  tau(   1) = (  0.0000000  0.0000000  0.0000000  )
         2           Pt  tau(   2) = ( -0.5000000  1.5000000 -0.5000000  )
         3           Ni  tau(   3) = ( -0.2500000  0.7500000 -0.2500000  )

     number of k points=    29  Methfessel-Paxton smearing, width (Ry)=  0.0050
                       cart. coord. in units 2pi/alat
        k(    1) = (   0.0000000   0.0000000   0.0000000), wk =   0.0039062
        k(    2) = (  -0.1250000   0.1250000  -0.1250000), wk =   0.0312500
        k(    3) = (  -0.2500000   0.2500000  -0.2500000), wk =   0.0312500
        k(    4) = (  -0.3750000   0.3750000  -0.3750000), wk =   0.0312500
        k(    5) = (   0.5000000  -0.5000000   0.5000000), wk =   0.0156250
        k(    6) = (   0.0000000   0.2500000   0.0000000), wk =   0.0234375
        k(    7) = (  -0.1250000   0.3750000  -0.1250000), wk =   0.0937500
        k(    8) = (  -0.2500000   0.5000000  -0.2500000), wk =   0.0937500
        k(    9) = (   0.6250000  -0.3750000   0.6250000), wk =   0.0937500
        k(   10) = (   0.5000000  -0.2500000   0.5000000), wk =   0.0937500
        k(   11) = (   0.3750000  -0.1250000   0.3750000), wk =   0.0937500
        k(   12) = (   0.2500000   0.0000000   0.2500000), wk =   0.0468750
        k(   13) = (   0.0000000   0.5000000   0.0000000), wk =   0.0234375
        k(   14) = (  -0.1250000   0.6250000  -0.1250000), wk =   0.0937500
        k(   15) = (   0.7500000  -0.2500000   0.7500000), wk =   0.0937500
        k(   16) = (   0.6250000  -0.1250000   0.6250000), wk =   0.0937500
        k(   17) = (   0.5000000   0.0000000   0.5000000), wk =   0.0468750
        k(   18) = (   0.0000000   0.7500000   0.0000000), wk =   0.0234375
        k(   19) = (   0.8750000  -0.1250000   0.8750000), wk =   0.0937500
        k(   20) = (   0.7500000   0.0000000   0.7500000), wk =   0.0468750
        k(   21) = (   0.0000000  -1.0000000   0.0000000), wk =   0.0117188
        k(   22) = (  -0.2500000   0.5000000   0.0000000), wk =   0.0937500
        k(   23) = (   0.6250000  -0.3750000   0.8750000), wk =   0.1875000
        k(   24) = (   0.5000000  -0.2500000   0.7500000), wk =   0.0937500
        k(   25) = (   0.7500000  -0.2500000   1.0000000), wk =   0.0937500
        k(   26) = (   0.6250000  -0.1250000   0.8750000), wk =   0.1875000
        k(   27) = (   0.5000000   0.0000000   0.7500000), wk =   0.0937500
        k(   28) = (  -0.2500000  -1.0000000   0.0000000), wk =   0.0468750
        k(   29) = (  -0.5000000  -1.0000000   0.0000000), wk =   0.0234375

                       cryst. coord.
        k(    1) = (   0.0000000   0.0000000   0.0000000), wk =   0.0039062
        k(    2) = (   0.0000000   0.0000000   0.1250000), wk =   0.0312500
        k(    3) = (   0.0000000   0.0000000   0.2500000), wk =   0.0312500
        k(    4) = (   0.0000000   0.0000000   0.3750000), wk =   0.0312500
        k(    5) = (   0.0000000   0.0000000  -0.5000000), wk =   0.0156250
        k(    6) = (   0.0000000   0.1250000   0.1250000), wk =   0.0234375
        k(    7) = (   0.0000000   0.1250000   0.2500000), wk =   0.0937500
        k(    8) = (   0.0000000   0.1250000   0.3750000), wk =   0.0937500
        k(    9) = (   0.0000000   0.1250000  -0.5000000), wk =   0.0937500
        k(   10) = (   0.0000000   0.1250000  -0.3750000), wk =   0.0937500
        k(   11) = (   0.0000000   0.1250000  -0.2500000), wk =   0.0937500
        k(   12) = (   0.0000000   0.1250000  -0.1250000), wk =   0.0468750
        k(   13) = (   0.0000000   0.2500000   0.2500000), wk =   0.0234375
        k(   14) = (   0.0000000   0.2500000   0.3750000), wk =   0.0937500
        k(   15) = (   0.0000000   0.2500000  -0.5000000), wk =   0.0937500
        k(   16) = (   0.0000000   0.2500000  -0.3750000), wk =   0.0937500
        k(   17) = (   0.0000000   0.2500000  -0.2500000), wk =   0.0468750
        k(   18) = (   0.0000000   0.3750000   0.3750000), wk =   0.0234375
        k(   19) = (   0.0000000   0.3750000  -0.5000000), wk =   0.0937500
        k(   20) = (   0.0000000   0.3750000  -0.3750000), wk =   0.0468750
        k(   21) = (   0.0000000  -0.5000000  -0.5000000), wk =   0.0117188
        k(   22) = (   0.1250000   0.2500000   0.3750000), wk =   0.0937500
        k(   23) = (   0.1250000   0.2500000  -0.5000000), wk =   0.1875000
        k(   24) = (   0.1250000   0.2500000  -0.3750000), wk =   0.0937500
        k(   25) = (   0.1250000   0.3750000  -0.5000000), wk =   0.0937500
        k(   26) = (   0.1250000   0.3750000  -0.3750000), wk =   0.1875000
        k(   27) = (   0.1250000   0.3750000  -0.2500000), wk =   0.0937500
        k(   28) = (   0.1250000  -0.5000000  -0.3750000), wk =   0.0468750
        k(   29) = (   0.2500000  -0.5000000  -0.2500000), wk =   0.0234375

     Dense  grid:    16361 G-vectors     FFT dimensions: (  36,  36,  36)

     Dynamical RAM for                 wfc:       0.93 MB

     Dynamical RAM for     wfc (w. buffer):      28.03 MB

     Dynamical RAM for           str. fact:       0.75 MB

     Dynamical RAM for           local pot:       0.00 MB

     Dynamical RAM for          nlocal pot:       1.68 MB

     Dynamical RAM for                qrad:       3.41 MB

     Dynamical RAM for          rho,v,vnew:       1.82 MB

     Dynamical RAM for               rhoin:       0.61 MB

     Dynamical RAM for            rho*nmix:       3.99 MB

     Dynamical RAM for           G-vectors:       1.06 MB

     Dynamical RAM for          h,s,v(r/c):       0.16 MB

     Dynamical RAM for          <psi|beta>:       0.02 MB

     Dynamical RAM for                 psi:       1.87 MB

     Dynamical RAM for                hpsi:       1.87 MB

     Dynamical RAM for                spsi:       1.87 MB

     Dynamical RAM for      wfcinit/wfcrot:       1.89 MB

     Dynamical RAM for           addusdens:      46.68 MB

     Estimated static dynamical RAM per process >      44.12 MB

     Estimated max dynamical RAM per process >      90.81 MB

     Check: negative core charge=   -0.000003

     Initial potential from superposition of free atoms

     starting charge   30.99935, renormalised to   31.00000
     Starting wfcs are   27 randomized atomic wfcs +    3 random wfcs
     Checking if some PAW data can be deallocated... 

     total cpu time spent up to now is        2.4 secs

     Self-consistent Calculation

     iteration #  1     ecut=    50.00 Ry     beta= 0.70
     Davidson diagonalization with overlap
     ethr =  1.00E-02,  avg # of iterations =  5.6

     total cpu time spent up to now is        7.2 secs

     total energy              =   -1144.53144717 Ry
     estimated scf accuracy    <       1.92868074 Ry

     iteration #  2     ecut=    50.00 Ry     beta= 0.70
     Davidson diagonalization with overlap
     ethr =  6.22E-03,  avg # of iterations =  2.1

     total cpu time spent up to now is       11.4 secs

     total energy              =   -1142.69052138 Ry
     estimated scf accuracy    <      50.59588921 Ry

     iteration #  3     ecut=    50.00 Ry     beta= 0.70
     Davidson diagonalization with overlap
     ethr =  6.22E-03,  avg # of iterations =  2.0

     total cpu time spent up to now is       15.2 secs

     total energy              =   -1145.94317994 Ry
     estimated scf accuracy    <       0.54533762 Ry

     iteration #  4     ecut=    50.00 Ry     beta= 0.70
     Davidson diagonalization with overlap
     ethr =  1.76E-03,  avg # of iterations =  1.2

     total cpu time spent up to now is       18.6 secs

     total energy              =   -1146.00722643 Ry
     estimated scf accuracy    <       0.12424045 Ry

     iteration #  5     ecut=    50.00 Ry     beta= 0.70
     Davidson diagonalization with overlap
     ethr =  4.01E-04,  avg # of iterations =  1.8

     total cpu time spent up to now is       22.1 secs

     total energy              =   -1146.00895976 Ry
     estimated scf accuracy    <       0.03881171 Ry

     iteration #  6     ecut=    50.00 Ry     beta= 0.70
     Davidson diagonalization with overlap
     ethr =  1.25E-04,  avg # of iterations =  1.8

     total cpu time spent up to now is       25.5 secs

     total energy              =   -1146.01214808 Ry
     estimated scf accuracy    <       0.00173330 Ry

     iteration #  7     ecut=    50.00 Ry     beta= 0.70
     Davidson diagonalization with overlap
     c_bands:  1 eigenvalues not converged
     ethr =  5.59E-06,  avg # of iterations =  9.6

     total cpu time spent up to now is       30.6 secs

     total energy              =   -1146.01280367 Ry
     estimated scf accuracy    <       0.00194653 Ry

     iteration #  8     ecut=    50.00 Ry     beta= 0.70
     Davidson diagonalization with overlap
     ethr =  5.59E-06,  avg # of iterations =  1.1

     total cpu time spent up to now is       34.0 secs

     total energy              =   -1146.01294326 Ry
     estimated scf accuracy    <       0.00003074 Ry

     iteration #  9     ecut=    50.00 Ry     beta= 0.70
     Davidson diagonalization with overlap
     ethr =  9.92E-08,  avg # of iterations =  4.2

     total cpu time spent up to now is       38.0 secs

     total energy              =   -1146.01295579 Ry
     estimated scf accuracy    <       0.00001096 Ry

     iteration # 10     ecut=    50.00 Ry     beta= 0.70
     Davidson diagonalization with overlap
     ethr =  3.53E-08,  avg # of iterations =  1.4

     total cpu time spent up to now is       41.4 secs

     total energy              =   -1146.01295593 Ry
     estimated scf accuracy    <       0.00000228 Ry

     iteration # 11     ecut=    50.00 Ry     beta= 0.70
     Davidson diagonalization with overlap
     ethr =  7.34E-09,  avg # of iterations =  2.5

     total cpu time spent up to now is       45.0 secs

     total energy              =   -1146.01295641 Ry
     estimated scf accuracy    <       0.00000014 Ry

     iteration # 12     ecut=    50.00 Ry     beta= 0.70
     Davidson diagonalization with overlap
     ethr =  4.39E-10,  avg # of iterations =  4.1

     total cpu time spent up to now is       49.3 secs

     End of self-consistent calculation

          k = 0.0000 0.0000 0.0000 (  2085 PWs)   bands (ev):

     2.2738   5.9607   5.9607   6.3517   6.3517   6.3517   7.4435   7.4435
     7.4435   8.6458   8.6458   8.9110   8.9110   8.9110   9.3882   9.3882
    16.8442  16.8442  16.8442  18.1749  19.0796  19.3741  19.3741  19.3741
    21.7845  21.7845  21.7845  26.1738  26.1915  26.1915

     occupation numbers 
     1.0000   1.0000   1.0000   1.0000   1.0000   1.0000   1.0000   1.0000
     1.0000   1.0000   1.0000   1.0000   1.0000   1.0000   1.0213   1.0213
    -0.0000  -0.0000  -0.0000  -0.0000  -0.0000  -0.0000  -0.0000  -0.0000
    -0.0000  -0.0000  -0.0000  -0.0000  -0.0000  -0.0000

          k =-0.1250 0.1250-0.1250 (  2049 PWs)   bands (ev):

     2.4982   6.0206   6.0206   6.3113   6.4092   6.4092   7.4214   7.4214
     7.5048   8.5484   8.5484   8.7110   8.8864   8.8864   9.4007   9.4007
    14.9234  16.7380  16.7380  18.2708  19.3018  19.3018  19.4362  20.0377
    21.8528  21.8528  22.8289  26.8748  26.8748  27.3565

     occupation numbers 
     1.0000   1.0000   1.0000   1.0000   1.0000   1.0000   1.0000   1.0000
     1.0000   1.0000   1.0000   1.0000   1.0000   1.0000   1.0297   1.0297
    -0.0000  -0.0000  -0.0000  -0.0000  -0.0000  -0.0000  -0.0000  -0.0000
    -0.0000  -0.0000  -0.0000  -0.0000  -0.0000  -0.0000

          k =-0.2500 0.2500-0.2500 (  2033 PWs)   bands (ev):

     3.1435   6.1885   6.1885   6.2595   6.5516   6.5516   7.3700   7.3700
     7.5813   8.2183   8.2664   8.2664   8.8832   8.8832   9.3971   9.3971
    12.5110  16.4957  16.4957  17.7822  18.9457  18.9457  19.5385  21.2901
    22.5493  22.5493  25.7967  28.4214  28.4214  30.0242

     occupation numbers 
     1.0000   1.0000   1.0000   1.0000   1.0000   1.0000   1.0000   1.0000
     1.0000   1.0000   1.0000   1.0000   1.0000   1.0000   1.0274   1.0274
    -0.0000  -0.0000  -0.0000  -0.0000  -0.0000  -0.0000  -0.0000  -0.0000
    -0.0000  -0.0000  -0.0000  -0.0000  -0.0000  -0.0000

          k =-0.3750 0.3750-0.3750 (  2039 PWs)   bands (ev):

     4.0829   6.2509   6.4097   6.4097   6.7012   6.7012   7.2374   7.3307
     7.3307   7.9189   7.9189   7.9335   8.9163   8.9163   9.3570   9.3570
    10.6685  16.2499  16.2499  17.4605  18.5633  18.5633  19.2630  23.4670
    23.8998  23.8998  28.7024  28.7025  28.8341  30.4234

     occupation numbers 
     1.0000   1.0000   1.0000   1.0000   1.0000   1.0000   1.0000   1.0000
     1.0000   1.0000   1.0000   1.0000   1.0000   1.0000   1.0058   1.0058
    -0.0000  -0.0000  -0.0000  -0.0000  -0.0000  -0.0000  -0.0000  -0.0000
    -0.0000  -0.0000  -0.0000  -0.0000  -0.0000  -0.0000

          k = 0.5000-0.5000 0.5000 (  2036 PWs)   bands (ev):

     4.7386   6.1768   6.5298   6.5298   6.7664   6.7664   6.8327   7.3328
     7.3328   7.7287   7.7287   7.9250   8.9407   8.9407   9.3280   9.3280
     9.9559  16.1429  16.1429  17.3478  18.4208  18.4208  19.1686  25.0009
    25.0009  25.4961  27.2306  27.3993  27.3993  32.2348

     occupation numbers 
     1.0000   1.0000   1.0000   1.0000   1.0000   1.0000   1.0000   1.0000
     1.0000   1.0000   1.0000   1.0000   1.0000   1.0000   1.0010   1.0010
    -0.0000  -0.0000  -0.0000  -0.0000  -0.0000  -0.0000  -0.0000  -0.0000
    -0.0000  -0.0000  -0.0000  -0.0000  -0.0000  -0.0000

          k = 0.0000 0.2500 0.0000 (  2029 PWs)   bands (ev):

     2.5715   6.0139   6.0494   6.2727   6.4398   6.4398   7.3382   7.5028
     7.5028   8.4223   8.6341   8.8291   8.8291   8.8307   9.3185   9.4464
    15.7561  15.7561  15.8221  17.5835  19.0241  20.1003  20.1003  20.3317
    21.9298  22.8013  22.8013  26.1513  26.2206  28.8204

     occupation numbers 
     1.0000   1.0000   1.0000   1.0000   1.0000   1.0000   1.0000   1.0000
     1.0000   1.0000   1.0000   1.0000   1.0000   1.0000   1.0005   0.9852
    -0.0000  -0.0000  -0.0000  -0.0000  -0.0000  -0.0000  -0.0000  -0.0000
    -0.0000  -0.0000  -0.0000  -0.0000  -0.0000  -0.0000

          k =-0.1250 0.3750-0.1250 (  2034 PWs)   bands (ev):

     3.0725   6.0663   6.1857   6.2318   6.5530   6.5774   7.1860   7.5352
     7.5784   8.2242   8.4563   8.5166   8.8308   8.8744   9.2676   9.4636
    13.3724  15.0819  16.1456  16.8841  18.9651  20.0660  20.3953  21.4326
    22.7076  23.6184  24.8837  26.8465  27.3925  31.0151

     occupation numbers 
     1.0000   1.0000   1.0000   1.0000   1.0000   1.0000   1.0000   1.0000
     1.0000   1.0000   1.0000   1.0000   1.0000   1.0000   1.0000   0.8861
    -0.0000  -0.0000  -0.0000  -0.0000  -0.0000  -0.0000  -0.0000  -0.0000
    -0.0000  -0.0000  -0.0000  -0.0000  -0.0000  -0.0000

          k =-0.2500 0.5000-0.2500 (  2036 PWs)   bands (ev):

     3.9165   6.0882   6.2815   6.3847   6.6909   6.7852   7.0691   7.5141
     7.5243   7.9861   8.0874   8.1616   8.8872   8.8997   9.2575   9.4412
    11.2329  14.8278  15.3286  16.9583  19.3442  20.1237  20.6150  21.3527
    24.4210  24.7023  27.7181  27.8399  29.2316  30.1552

     occupation numbers 
     1.0000   1.0000   1.0000   1.0000   1.0000   1.0000   1.0000   1.0000
     1.0000   1.0000   1.0000   1.0000   1.0000   1.0000   1.0000   1.0037
    -0.0000  -0.0000  -0.0000  -0.0000  -0.0000  -0.0000  -0.0000  -0.0000
    -0.0000  -0.0000  -0.0000  -0.0000  -0.0000  -0.0000

          k = 0.6250-0.3750 0.6250 (  2039 PWs)   bands (ev):

     4.7789   5.9536   6.3828   6.5260   6.7626   6.8218   7.1891   7.3350
     7.4437   7.7364   7.8193   8.0267   8.8934   8.9500   9.3334   9.3530
    10.0158  14.5830  15.0549  17.0392  19.2642  19.6664  20.9503  22.8570
    25.1474  25.6638  27.3054  27.3524  29.8080  30.9068

     occupation numbers 
     1.0000   1.0000   1.0000   1.0000   1.0000   1.0000   1.0000   1.0000
     1.0000   1.0000   1.0000   1.0000   1.0000   1.0000   1.0015   1.0047
    -0.0000  -0.0000  -0.0000  -0.0000  -0.0000  -0.0000  -0.0000  -0.0000
    -0.0000  -0.0000  -0.0000  -0.0000  -0.0000  -0.0000

          k = 0.5000-0.2500 0.5000 (  2035 PWs)   bands (ev):

     4.5365   6.0523   6.3967   6.4853   6.7969   6.8405   7.0899   7.2628
     7.4940   7.7639   7.8592   8.0746   8.8738   8.9731   9.2388   9.4382
    10.3146  14.1610  15.7576  17.2759  19.1523  19.2328  21.1468  23.2956
    23.4736  25.3379  27.6522  28.8742  29.1324  30.4158

     occupation numbers 
     1.0000   1.0000   1.0000   1.0000   1.0000   1.0000   1.0000   1.0000
     1.0000   1.0000   1.0000   1.0000   1.0000   1.0000   1.0000   1.0119
    -0.0000  -0.0000  -0.0000  -0.0000  -0.0000  -0.0000  -0.0000  -0.0000
    -0.0000  -0.0000  -0.0000  -0.0000  -0.0000  -0.0000

          k = 0.3750-0.1250 0.3750 (  2042 PWs)   bands (ev):

     3.6092   6.1586   6.2553   6.2955   6.6772   6.7235   7.2217   7.3461
     7.5538   8.0499   8.0687   8.3057   8.8706   8.9196   9.2180   9.4915
    11.9187  14.1429  16.8327  17.7743  18.7430  19.1294  20.6887  21.9627
    22.0455  25.2769  26.6306  27.6420  28.8998  30.3590

     occupation numbers 
     1.0000   1.0000   1.0000   1.0000   1.0000   1.0000   1.0000   1.0000
     1.0000   1.0000   1.0000   1.0000   1.0000   1.0000   1.0000   0.5995
    -0.0000  -0.0000  -0.0000  -0.0000  -0.0000  -0.0000  -0.0000  -0.0000
    -0.0000  -0.0000  -0.0000  -0.0000  -0.0000  -0.0000

          k = 0.2500 0.0000 0.2500 (  2027 PWs)   bands (ev):

     2.8620   6.1087   6.1098   6.2343   6.4957   6.5348   7.3118   7.4878
     7.5263   8.3413   8.3678   8.6000   8.8482   8.8846   9.2991   9.4743
    13.9539  14.7737  17.7256  18.2698  18.5500  19.0078  19.5816  21.3887
    21.4039  23.6585  24.2432  26.2010  28.4464  29.2512

     occupation numbers 
     1.0000   1.0000   1.0000   1.0000   1.0000   1.0000   1.0000   1.0000
     1.0000   1.0000   1.0000   1.0000   1.0000   1.0000   1.0001   0.7921
    -0.0000  -0.0000  -0.0000  -0.0000  -0.0000  -0.0000  -0.0000  -0.0000
    -0.0000  -0.0000  -0.0000  -0.0000  -0.0000  -0.0000

          k = 0.0000 0.5000 0.0000 (  2020 PWs)   bands (ev):

     3.4062   5.9350   6.2076   6.2864   6.6318   6.6318   6.9835   7.6535
     7.6535   8.2007   8.5924   8.7449   8.7449   8.7667   9.1396   9.4555
    13.9641  13.9641  14.6309  15.2103  18.3496  21.5955  21.5955  23.5873
    24.0368  24.9245  24.9245  26.0454  26.4005  31.5891

     occupation numbers 
     1.0000   1.0000   1.0000   1.0000   1.0000   1.0000   1.0000   1.0000
     1.0000   1.0000   1.0000   1.0000   1.0000   1.0000   1.0000   0.9404
    -0.0000  -0.0000  -0.0000  -0.0000  -0.0000  -0.0000  -0.0000  -0.0000
    -0.0000  -0.0000  -0.0000  -0.0000  -0.0000  -0.0000

          k =-0.1250 0.6250-0.1250 (  2037 PWs)   bands (ev):

     4.0790   5.8699   6.1098   6.4462   6.7426   6.7545   6.9518   7.6648
     7.6872   8.1506   8.3726   8.5380   8.8114   8.8944   9.1491   9.4622
    11.9754  13.3786  13.5238  15.8267  18.6650  21.7744  22.0132  24.0204
    25.5112  25.7852  26.6477  26.8245  28.1570  30.0890

     occupation numbers 
     1.0000   1.0000   1.0000   1.0000   1.0000   1.0000   1.0000   1.0000
     1.0000   1.0000   1.0000   1.0000   1.0000   1.0000   1.0000   0.8960
    -0.0000  -0.0000  -0.0000  -0.0000  -0.0000  -0.0000  -0.0000  -0.0000
    -0.0000  -0.0000  -0.0000  -0.0000  -0.0000  -0.0000

          k = 0.7500-0.2500 0.7500 (  2044 PWs)   bands (ev):

     4.8961   5.7564   6.0911   6.5515   6.6724   6.9154   7.1985   7.5679
     7.7793   7.9703   8.0180   8.3718   8.7722   9.0247   9.3513   9.4474
    10.2369  12.5922  13.4825  16.4009  20.0179  21.4606  21.7260  23.7873
    25.4659  25.9821  27.3532  27.7874  29.6418  30.7014

     occupation numbers 
     1.0000   1.0000   1.0000   1.0000   1.0000   1.0000   1.0000   1.0000
     1.0000   1.0000   1.0000   1.0000   1.0000   1.0000   1.0043   0.9811
    -0.0000  -0.0000  -0.0000  -0.0000  -0.0000  -0.0000  -0.0000  -0.0000
    -0.0000  -0.0000  -0.0000  -0.0000  -0.0000  -0.0000

          k = 0.6250-0.1250 0.6250 (  2047 PWs)   bands (ev):

     5.1033   5.7751   6.2667   6.5232   6.5508   7.0452   7.3119   7.4335
     7.6141   7.7829   8.0101   8.2126   8.7789   8.9766   9.3515   9.4926
    10.1706  11.9946  14.2464  16.7491  20.7241  21.2718  22.2447  23.1801
    23.4066  24.7619  28.1141  29.1540  30.3188  30.9096

     occupation numbers 
     1.0000   1.0000   1.0000   1.0000   1.0000   1.0000   1.0000   1.0000
     1.0000   1.0000   1.0000   1.0000   1.0000   1.0000   1.0043   0.5871
    -0.0000  -0.0000  -0.0000  -0.0000  -0.0000  -0.0000  -0.0000  -0.0000
    -0.0000  -0.0000  -0.0000  -0.0000  -0.0000  -0.0000

          k = 0.5000 0.0000 0.5000 (  2029 PWs)   bands (ev):

     4.3660   6.0365   6.2682   6.4516   6.7832   6.9243   7.1758   7.2129
     7.5869   7.7967   7.9986   8.2951   8.8243   8.9843   9.1509   9.5307
    11.4942  12.0654  15.4708  17.1698  20.3482  20.4668  20.9114  22.0188
    24.0694  25.2142  26.7396  28.8541  29.2804  30.8315

     occupation numbers 
     1.0000   1.0000   1.0000   1.0000   1.0000   1.0000   1.0000   1.0000
     1.0000   1.0000   1.0000   1.0000   1.0000   1.0000   1.0000   0.1545
    -0.0000  -0.0000  -0.0000  -0.0000  -0.0000  -0.0000  -0.0000  -0.0000
    -0.0000  -0.0000  -0.0000  -0.0000  -0.0000  -0.0000

          k = 0.0000 0.7500 0.0000 (  2048 PWs)   bands (ev):

     4.5025   5.6874   5.9974   6.5734   6.7890   6.7890   6.9538   7.7111
     7.7111   8.2462   8.5026   8.6735   8.9579   9.0495   9.0495   9.5055
    11.9194  12.3537  12.3537  14.9001  18.0725  23.6278  23.6278  25.9238
    26.1764  26.7474  27.0359  27.0359  27.8124  30.4190

     occupation numbers 
     1.0000   1.0000   1.0000   1.0000   1.0000   1.0000   1.0000   1.0000
     1.0000   1.0000   1.0000   1.0000   1.0000   1.0000   1.0000   0.4269
    -0.0000  -0.0000  -0.0000  -0.0000  -0.0000  -0.0000  -0.0000  -0.0000
    -0.0000  -0.0000  -0.0000  -0.0000  -0.0000  -0.0000

          k = 0.8750-0.1250 0.8750 (  2049 PWs)   bands (ev):

     5.0205   5.5759   6.0048   6.6334   6.7022   6.9140   7.1077   7.6296
     7.8280   8.2257   8.3943   8.5938   8.7094   9.3249   9.3921   9.6506
    10.6788  11.2481  12.1544  15.5347  18.4767  23.7216  23.9182  25.6611
    25.7768  27.0241  27.6118  28.1821  29.2904  29.4788

     occupation numbers 
     1.0000   1.0000   1.0000   1.0000   1.0000   1.0000   1.0000   1.0000
     1.0000   1.0000   1.0000   1.0000   1.0000   1.0008   1.0240  -0.0037
    -0.0000  -0.0000  -0.0000  -0.0000  -0.0000  -0.0000  -0.0000  -0.0000
    -0.0000  -0.0000  -0.0000  -0.0000  -0.0000  -0.0000

          k = 0.7500 0.0000 0.7500 (  2045 PWs)   bands (ev):

     5.4223   5.5168   6.1314   6.4328   6.5985   7.0956   7.2406   7.4838
     7.9702   8.0761   8.1650   8.4601   8.6752   9.3528   9.5054   9.5211
    10.2213  10.5892  12.9187  16.2616  19.9409  23.1178  23.4271  23.4692
    23.7416  27.3157  27.6460  28.7548  29.7907  30.7890

     occupation numbers 
     1.0000   1.0000   1.0000   1.0000   1.0000   1.0000   1.0000   1.0000
     1.0000   1.0000   1.0000   1.0000   1.0000   1.0046   0.4279   0.2466
    -0.0000  -0.0000  -0.0000  -0.0000  -0.0000  -0.0000  -0.0000  -0.0000
    -0.0000  -0.0000  -0.0000  -0.0000  -0.0000  -0.0000

          k = 0.0000-1.0000 0.0000 (  2044 PWs)   bands (ev):

     5.0806   5.4459   6.0454   6.7171   6.8459   6.8459   7.0719   7.6832
     7.6832   8.3140   8.4317   8.5990   8.8918   9.4516   9.4516   9.9116
    10.2586  11.5371  11.5371  14.8404  17.9998  25.3651  25.3651  25.8676
    26.6027  27.1506  27.1506  28.0750  28.9619  28.9620

     occupation numbers 
     1.0000   1.0000   1.0000   1.0000   1.0000   1.0000   1.0000   1.0000
     1.0000   1.0000   1.0000   1.0000   1.0000   0.9620   0.9620  -0.0000
    -0.0000  -0.0000  -0.0000  -0.0000  -0.0000  -0.0000  -0.0000  -0.0000
    -0.0000  -0.0000  -0.0000  -0.0000  -0.0000  -0.0000

          k =-0.2500 0.5000 0.0000 (  2036 PWs)   bands (ev):

     3.6697   6.0241   6.1929   6.3592   6.6821   6.7402   7.0181   7.5463
     7.6148   8.1267   8.2039   8.4452   8.8464   8.9030   9.1603   9.4899
    12.5855  13.2364  15.2593  17.2147  19.1003  19.6652  21.6034  22.4169
    23.3268  25.7327  26.4647  26.6167  28.2353  30.1468

     occupation numbers 
     1.0000   1.0000   1.0000   1.0000   1.0000   1.0000   1.0000   1.0000
     1.0000   1.0000   1.0000   1.0000   1.0000   1.0000   1.0000   0.6195
    -0.0000  -0.0000  -0.0000  -0.0000  -0.0000  -0.0000  -0.0000  -0.0000
    -0.0000  -0.0000  -0.0000  -0.0000  -0.0000  -0.0000

          k = 0.6250-0.3750 0.8750 (  2046 PWs)   bands (ev):

     4.5138   5.9553   6.1586   6.5332   6.7809   6.8207   7.1411   7.4411
     7.6515   7.8531   8.0007   8.2994   8.8034   9.0000   9.2096   9.4886
    10.8381  12.8550  14.2033  17.8222  18.9716  20.4197  21.9463  23.0398
    24.3501  25.4162  27.4431  28.2267  29.4067  30.2364

     occupation numbers 
     1.0000   1.0000   1.0000   1.0000   1.0000   1.0000   1.0000   1.0000
     1.0000   1.0000   1.0000   1.0000   1.0000   1.0000   1.0000   0.6349
    -0.0000  -0.0000  -0.0000  -0.0000  -0.0000  -0.0000  -0.0000  -0.0000
    -0.0000  -0.0000  -0.0000  -0.0000  -0.0000  -0.0000

          k = 0.5000-0.2500 0.7500 (  2036 PWs)   bands (ev):

     5.1156   5.7274   6.2345   6.5179   6.7757   6.8807   7.3427   7.3800
     7.6103   7.7429   7.9952   8.1580   8.7794   9.0775   9.3201   9.4503
     9.9054  13.0069  13.6309  17.9269  18.7800  21.7617  22.1730  22.9617
    23.5416  25.9272  27.0366  29.9096  30.0332  30.3883

     occupation numbers 
     1.0000   1.0000   1.0000   1.0000   1.0000   1.0000   1.0000   1.0000
     1.0000   1.0000   1.0000   1.0000   1.0000   1.0000   1.0006   0.9684
    -0.0000  -0.0000  -0.0000  -0.0000  -0.0000  -0.0000  -0.0000  -0.0000
    -0.0000  -0.0000  -0.0000  -0.0000  -0.0000  -0.0000

          k = 0.7500-0.2500 1.0000 (  2051 PWs)   bands (ev):

     4.7159   5.7794   5.9848   6.5572   6.7250   6.8866   7.0792   7.6287
     7.7715   8.1236   8.2286   8.5015   8.7249   9.1022   9.2704   9.5125
    11.3725  11.8469  12.5182  16.5508  18.8709  21.2499  23.8457  24.9001
    25.6692  25.9212  26.8009  28.3065  28.9971  30.0349

     occupation numbers 
     1.0000   1.0000   1.0000   1.0000   1.0000   1.0000   1.0000   1.0000
     1.0000   1.0000   1.0000   1.0000   1.0000   1.0000   1.0000   0.3430
    -0.0000  -0.0000  -0.0000  -0.0000  -0.0000  -0.0000  -0.0000  -0.0000
    -0.0000  -0.0000  -0.0000  -0.0000  -0.0000  -0.0000

          k = 0.6250-0.1250 0.8750 (  2045 PWs)   bands (ev):

     5.3199   5.6378   6.0602   6.4073   6.7506   7.0556   7.2268   7.5244
     7.7728   8.0318   8.1120   8.4408   8.6715   9.3563   9.4953   9.6263
    10.0402  11.3803  12.2001  17.4782  20.0447  20.6793  22.7934  24.2550
    25.8543  26.4344  27.2582  28.8801  29.6170  29.9371

     occupation numbers 
     1.0000   1.0000   1.0000   1.0000   1.0000   1.0000   1.0000   1.0000
     1.0000   1.0000   1.0000   1.0000   1.0000   1.0056   0.5538  -0.0122
    -0.0000  -0.0000  -0.0000  -0.0000  -0.0000  -0.0000  -0.0000  -0.0000
    -0.0000  -0.0000  -0.0000  -0.0000  -0.0000  -0.0000

          k = 0.5000 0.0000 0.7500 (  2040 PWs)   bands (ev):

     5.1697   5.7712   6.1138   6.4163   6.7939   7.0238   7.2648   7.4216
     7.6131   7.9777   8.0476   8.3550   8.7046   9.1202   9.3771   9.5407
    10.7342  11.0536  13.0324  18.0844  19.6471  20.8857  22.3859  23.8557
    24.3749  26.1838  26.8715  29.4342  29.7120  31.1466

     occupation numbers 
     1.0000   1.0000   1.0000   1.0000   1.0000   1.0000   1.0000   1.0000
     1.0000   1.0000   1.0000   1.0000   1.0000   1.0000   1.0144   0.0783
    -0.0000  -0.0000  -0.0000  -0.0000  -0.0000  -0.0000  -0.0000  -0.0000
    -0.0000  -0.0000  -0.0000  -0.0000  -0.0000  -0.0000

          k =-0.2500-1.0000 0.0000 (  2044 PWs)   bands (ev):

     5.2598   5.5465   6.0515   6.5118   6.6852   7.0326   7.1455   7.6165
     7.9462   8.2019   8.2950   8.4600   8.6457   9.4716   9.5398  10.0119
    10.2075  11.1601  11.2057  16.3552  18.7811  22.9093  23.4520  25.8252
    26.3394  26.8894  28.0831  28.4713  29.1052  29.2659

     occupation numbers 
     1.0000   1.0000   1.0000   1.0000   1.0000   1.0000   1.0000   1.0000
     1.0000   1.0000   1.0000   1.0000   1.0000   0.8183   0.0844  -0.0000
    -0.0000  -0.0000  -0.0000  -0.0000  -0.0000  -0.0000  -0.0000  -0.0000
    -0.0000  -0.0000  -0.0000  -0.0000  -0.0000  -0.0000

          k =-0.5000-1.0000 0.0000 (  2048 PWs)   bands (ev):

     5.4588   5.7081   6.0647   6.2093   6.9644   7.0695   7.1961   7.5537
     7.5685   8.0734   8.1573   8.5007   8.6476   9.4790   9.6161  10.1633
    10.3350  10.5759  11.0473  19.3552  19.4246  20.4790  21.0573  26.3454
    26.5924  26.8761  27.9714  28.0235  28.4095  29.2599

     occupation numbers 
     1.0000   1.0000   1.0000   1.0000   1.0000   1.0000   1.0000   1.0000
     1.0000   1.0000   1.0000   1.0000   1.0000   0.7438  -0.0180  -0.0000
    -0.0000  -0.0000  -0.0000  -0.0000  -0.0000  -0.0000  -0.0000  -0.0000
    -0.0000  -0.0000  -0.0000  -0.0000  -0.0000  -0.0000

     the Fermi energy is     9.4996 ev

!    total energy              =   -1146.01295647 Ry

     total all-electron energy =    -43178.972336 Ry
     estimated scf accuracy    <          8.3E-09 Ry
     smearing contrib. (-TS)   =      -0.00051700 Ry
     internal energy E=F+TS    =   -1146.01243946 Ry

     The total energy is F=E-TS. E is the sum of the following terms:
     one-electron contribution =     -64.67532471 Ry
     hartree contribution      =      72.74682894 Ry
     xc contribution           =    -109.97655717 Ry
     ewald contribution        =    -184.53108722 Ry
     one-center paw contrib.   =    -859.57629931 Ry
      -> PAW hartree energy AE =     224.87865358 Ry
      -> PAW hartree energy PS =    -223.77685468 Ry
      -> PAW xc energy AE      =    -970.17551343 Ry
      -> PAW xc energy PS      =     109.49741522 Ry
      -> total E_H with PAW    =      73.84862784 Ry
      -> total E_XC with PAW   =    -970.65465538 Ry

     convergence has been achieved in  12 iterations

     Writing output data file ././CuPtNi.save/

     init_run     :      2.85s CPU      2.18s WALL (       1 calls)
     electrons    :     77.76s CPU     46.90s WALL (       1 calls)

     Called by init_run:
     wfcinit      :      1.66s CPU      1.04s WALL (       1 calls)
     wfcinit:atom :      0.04s CPU      0.02s WALL (      29 calls)
     wfcinit:wfcr :      1.55s CPU      0.98s WALL (      29 calls)
     potinit      :      0.35s CPU      0.36s WALL (       1 calls)
     hinit0       :      0.69s CPU      0.66s WALL (       1 calls)

     Called by electrons:
     c_bands      :     58.54s CPU     33.49s WALL (      12 calls)
     sum_band     :     12.95s CPU      7.70s WALL (      12 calls)
     v_of_rho     :      0.35s CPU      0.26s WALL (      13 calls)
     v_h          :      0.02s CPU      0.01s WALL (      13 calls)
     v_xc         :      0.34s CPU      0.24s WALL (      13 calls)
     newd         :      1.41s CPU      1.18s WALL (      13 calls)
     PAW_pot      :      4.82s CPU      4.60s WALL (      13 calls)
     mix_rho      :      0.06s CPU      0.04s WALL (      12 calls)

     Called by c_bands:
     init_us_2    :      1.44s CPU      0.71s WALL (     725 calls)
     cegterg      :     53.40s CPU     30.58s WALL (     348 calls)

     Called by sum_band:
     sum_band:wei :      0.02s CPU      0.01s WALL (      12 calls)
     sum_band:loo :     10.28s CPU      6.33s WALL (      12 calls)
     sum_band:buf :      0.07s CPU      0.04s WALL (     348 calls)
     sum_band:ini :      0.62s CPU      0.34s WALL (     348 calls)
     sum_band:cal :      0.29s CPU      0.20s WALL (     348 calls)
     sum_band:bec :      0.01s CPU      0.01s WALL (     348 calls)
     addusdens    :      2.57s CPU      1.31s WALL (      12 calls)
     addusd:skk   :      0.00s CPU      0.00s WALL (      36 calls)
     addusd:dgemm :      1.40s CPU      0.53s WALL (      36 calls)
     addusd:qvan2 :      0.96s CPU      0.61s WALL (      36 calls)

     Called by *egterg:
     cdiaghg      :      2.97s CPU      1.26s WALL (    1430 calls)
     cegterg:over :      1.29s CPU      0.52s WALL (    1082 calls)
     cegterg:upda :      1.16s CPU      0.46s WALL (    1082 calls)
     cegterg:last :      1.68s CPU      0.62s WALL (     659 calls)
     h_psi        :     45.54s CPU     27.71s WALL (    1459 calls)
     s_psi        :      0.89s CPU      0.42s WALL (    1459 calls)
     g_psi        :      0.51s CPU      0.18s WALL (    1082 calls)

     Called by h_psi:
     h_psi:calbec :      0.96s CPU      0.72s WALL (    1459 calls)
     vloc_psi     :     43.35s CPU     26.39s WALL (    1459 calls)
     add_vuspsi   :      0.88s CPU      0.44s WALL (    1459 calls)

     General routines
     calbec       :      1.24s CPU      0.93s WALL (    1807 calls)
     fft          :      0.17s CPU      0.11s WALL (     143 calls)
     ffts         :      0.02s CPU      0.01s WALL (      12 calls)
     fftw         :     45.46s CPU     27.76s WALL (   62218 calls)

     Parallel routines

     PAW routines
     PAW_pot      :      4.82s CPU      4.60s WALL (      13 calls)
     PAW_symme    :      0.02s CPU      0.01s WALL (      25 calls)

     PWSCF        :   1m20.88s CPU     49.49s WALL


   This run was terminated on:  13: 2:31  22May2024            

=------------------------------------------------------------------------------=
   JOB DONE.
=------------------------------------------------------------------------------=
