
     Program BANDS v.6.7MaX starts on 22May2024 at 11: 0:12 

     This program is part of the open-source Quantum ESPRESSO suite
     for quantum simulation of materials; please cite
         "P. Giannozzi et al., J. Phys.:Condens. Matter 21 395502 (2009);
         "P. Giannozzi et al., J. Phys.:Condens. Matter 29 465901 (2017);
          URL http://www.quantum-espresso.org", 
     in publications or presentations arising from this work. More details at
     http://www.quantum-espresso.org/quote

     Parallel version (MPI), running on     1 processors

     MPI processes distributed on     1 nodes

     Reading xml data from directory:

     ./silicon.save/
     file Si.UPF: wavefunction(s)  3S 3P renormalized

     IMPORTANT: XC functional enforced from input :
     Exchange-correlation= PBE
                           (   1   4   3   4   0   0   0)
     Any further DFT definition will be discarded
     Please, verify this is what you really want


     G-vector sticks info
     --------------------
     sticks:   dense  smooth     PW     G-vecs:    dense   smooth      PW
     Sum        1495     745    211                37917    13371    2109

     Reading collected, re-writing distributed wavefunctions
     high-symmetry point:  0.5000 0.5000 0.5000   x coordinate   0.0000
     high-symmetry point:  0.0000 0.0000 0.0000   x coordinate   0.8660
     high-symmetry point:  1.0000 0.0000 0.0000   x coordinate   1.8660
     high-symmetry point:  1.0000 0.2500 0.2500   x coordinate   2.2196
     high-symmetry point:  0.0000 0.0000 0.0000   x coordinate   3.2802

     Plottable bands (eV) written to file band.dat.gnu
     Bands written to file band.dat

 **************************************************************************

                    xk=(   0.50000,   0.50000,   0.50000  )

     zone border point and non-symmorphic group 
     symmetry decomposition not available

 **************************************************************************

 **************************************************************************

                    xk=(   0.47500,   0.47500,   0.47500  )

     point group C_3v (3m)  
     there are  3 classes
     the character table:

       E     2C3   3s_v 
A_1    1.00  1.00  1.00
A_2    1.00  1.00 -1.00
E      2.00 -1.00  0.00

     the symmetry operations in each class and the name of the first element:

     E        1
                                                                 
     2C3      2    3
                                                                 
     3s_v     4    5    6
                                                                 

     Band symmetry, C_3v (3m)   point group:

     e(  1 -  1) =     -3.66809  eV     1   --> A_1  L_1       
     e(  2 -  2) =     -0.91467  eV     1   --> A_1  L_1       
     e(  3 -  4) =      4.68645  eV     2   --> E    L_3       
     e(  5 -  5) =      7.27175  eV     1   --> A_1  L_1       
     e(  6 -  7) =      9.20981  eV     2   --> E    L_3       
     e(  8 -  8) =     13.54717  eV     1   --> A_1  L_1       

 **************************************************************************

 **************************************************************************

                    xk=(   0.45000,   0.45000,   0.45000  )

     Band symmetry, C_3v (3m)   point group:

     e(  1 -  1) =     -3.76146  eV     1   --> A_1  L_1       
     e(  2 -  2) =     -0.77607  eV     1   --> A_1  L_1       
     e(  3 -  4) =      4.69970  eV     2   --> E    L_3       
     e(  5 -  5) =      7.28724  eV     1   --> A_1  L_1       
     e(  6 -  7) =      9.22359  eV     2   --> E    L_3       
     e(  8 -  8) =     13.56797  eV     1   --> A_1  L_1       

 **************************************************************************

 **************************************************************************

                    xk=(   0.42500,   0.42500,   0.42500  )

     Band symmetry, C_3v (3m)   point group:

     e(  1 -  1) =     -3.89895  eV     1   --> A_1  L_1       
     e(  2 -  2) =     -0.56331  eV     1   --> A_1  L_1       
     e(  3 -  4) =      4.72177  eV     2   --> E    L_3       
     e(  5 -  5) =      7.31298  eV     1   --> A_1  L_1       
     e(  6 -  7) =      9.24529  eV     2   --> E    L_3       
     e(  8 -  8) =     13.59945  eV     1   --> A_1  L_1       

 **************************************************************************

 **************************************************************************

                    xk=(   0.40000,   0.40000,   0.40000  )

     Band symmetry, C_3v (3m)   point group:

     e(  1 -  1) =     -4.06374  eV     1   --> A_1  L_1       
     e(  2 -  2) =     -0.29338  eV     1   --> A_1  L_1       
     e(  3 -  4) =      4.75260  eV     2   --> E    L_3       
     e(  5 -  5) =      7.34886  eV     1   --> A_1  L_1       
     e(  6 -  7) =      9.27294  eV     2   --> E    L_3       
     e(  8 -  8) =     13.63500  eV     1   --> A_1  L_1       

 **************************************************************************

 **************************************************************************

                    xk=(   0.37500,   0.37500,   0.37500  )

     Band symmetry, C_3v (3m)   point group:

     e(  1 -  1) =     -4.24247  eV     1   --> A_1  L_1       
     e(  2 -  2) =      0.02008  eV     1   --> A_1  L_1       
     e(  3 -  4) =      4.79213  eV     2   --> E    L_3       
     e(  5 -  5) =      7.39469  eV     1   --> A_1  L_1       
     e(  6 -  7) =      9.30362  eV     2   --> E    L_3       
     e(  8 -  8) =     13.65977  eV     1   --> A_1  L_1       

 **************************************************************************

 **************************************************************************

                    xk=(   0.35000,   0.35000,   0.35000  )

     Band symmetry, C_3v (3m)   point group:

     e(  1 -  1) =     -4.42573  eV     1   --> A_1  L_1       
     e(  2 -  2) =      0.36731  eV     1   --> A_1  L_1       
     e(  3 -  4) =      4.84023  eV     2   --> E    L_3       
     e(  5 -  5) =      7.45021  eV     1   --> A_1  L_1       
     e(  6 -  7) =      9.33330  eV     2   --> E    L_3       
     e(  8 -  8) =     13.64033  eV     1   --> A_1  L_1       

 **************************************************************************

 **************************************************************************

                    xk=(   0.32500,   0.32500,   0.32500  )

     Band symmetry, C_3v (3m)   point group:

     e(  1 -  1) =     -4.60720  eV     1   --> A_1  L_1       
     e(  2 -  2) =      0.74153  eV     1   --> A_1  L_1       
     e(  3 -  4) =      4.89672  eV     2   --> E    L_3       
     e(  5 -  5) =      7.51505  eV     1   --> A_1  L_1       
     e(  6 -  7) =      9.35684  eV     2   --> E    L_3       
     e(  8 -  8) =     13.51755  eV     1   --> A_1  L_1       

 **************************************************************************

 **************************************************************************

                    xk=(   0.30000,   0.30000,   0.30000  )

     Band symmetry, C_3v (3m)   point group:

     e(  1 -  1) =     -4.78264  eV     1   --> A_1  L_1       
     e(  2 -  2) =      1.13788  eV     1   --> A_1  L_1       
     e(  3 -  4) =      4.96132  eV     2   --> E    L_3       
     e(  5 -  5) =      7.58868  eV     1   --> A_1  L_1       
     e(  6 -  7) =      9.36811  eV     2   --> E    L_3       
     e(  8 -  8) =     13.25665  eV     1   --> A_1  L_1       

 **************************************************************************

 **************************************************************************

                    xk=(   0.27500,   0.27500,   0.27500  )

     Band symmetry, C_3v (3m)   point group:

     e(  1 -  1) =     -4.94919  eV     1   --> A_1  L_1       
     e(  2 -  2) =      1.55273  eV     1   --> A_1  L_1       
     e(  3 -  4) =      5.03359  eV     2   --> E    L_3       
     e(  5 -  5) =      7.67041  eV     1   --> A_1  L_1       
     e(  6 -  7) =      9.36052  eV     2   --> E    L_3       
     e(  8 -  8) =     12.89728  eV     1   --> A_1  L_1       

 **************************************************************************

 **************************************************************************

                    xk=(   0.25000,   0.25000,   0.25000  )

     Band symmetry, C_3v (3m)   point group:

     e(  1 -  1) =     -5.10486  eV     1   --> A_1  L_1       
     e(  2 -  2) =      1.98308  eV     1   --> A_1  L_1       
     e(  3 -  4) =      5.11294  eV     2   --> E    L_3       
     e(  5 -  5) =      7.75927  eV     1   --> A_1  L_1       
     e(  6 -  7) =      9.32829  eV     2   --> E    L_3       
     e(  8 -  8) =     12.48892  eV     1   --> A_1  L_1       

 **************************************************************************

 **************************************************************************

                    xk=(   0.22500,   0.22500,   0.22500  )

     Band symmetry, C_3v (3m)   point group:

     e(  1 -  1) =     -5.24823  eV     1   --> A_1  L_1       
     e(  2 -  2) =      2.42617  eV     1   --> A_1  L_1       
     e(  3 -  4) =      5.19852  eV     2   --> E    L_3       
     e(  5 -  5) =      7.85398  eV     1   --> A_1  L_1       
     e(  6 -  7) =      9.26803  eV     2   --> E    L_3       
     e(  8 -  8) =     12.05711  eV     1   --> A_1  L_1       

 **************************************************************************

 **************************************************************************

                    xk=(   0.20000,   0.20000,   0.20000  )

     Band symmetry, C_3v (3m)   point group:

     e(  1 -  1) =     -5.37831  eV     1   --> A_1  L_1       
     e(  2 -  2) =      2.87921  eV     1   --> A_1  L_1       
     e(  3 -  4) =      5.28914  eV     2   --> E    L_3       
     e(  5 -  5) =      7.95283  eV     1   --> A_1  L_1       
     e(  6 -  7) =      9.18008  eV     2   --> E    L_3       
     e(  8 -  8) =     11.61320  eV     1   --> A_1  L_1       

 **************************************************************************

 **************************************************************************

                    xk=(   0.17500,   0.17500,   0.17500  )

     Band symmetry, C_3v (3m)   point group:

     e(  1 -  1) =     -5.49433  eV     1   --> A_1  L_1       
     e(  2 -  2) =      3.33895  eV     1   --> A_1  L_1       
     e(  3 -  4) =      5.38317  eV     2   --> E    L_3       
     e(  5 -  5) =      8.05352  eV     1   --> A_1  L_1       
     e(  6 -  7) =      9.06893  eV     2   --> E    L_3       
     e(  8 -  8) =     11.16315  eV     1   --> A_1  L_1       

 **************************************************************************

 **************************************************************************

                    xk=(   0.15000,   0.15000,   0.15000  )

     Band symmetry, C_3v (3m)   point group:

     e(  1 -  1) =     -5.59574  eV     1   --> A_1  L_1       
     e(  2 -  2) =      3.80125  eV     1   --> A_1  L_1       
     e(  3 -  4) =      5.47839  eV     2   --> E    L_3       
     e(  5 -  5) =      8.15305  eV     1   --> A_1  L_1       
     e(  6 -  7) =      8.94229  eV     2   --> E    L_3       
     e(  8 -  8) =     10.71166  eV     1   --> A_1  L_1       

 **************************************************************************

 **************************************************************************

                    xk=(   0.12500,   0.12500,   0.12500  )

     Band symmetry, C_3v (3m)   point group:

     e(  1 -  1) =     -5.68213  eV     1   --> A_1  L_1       
     e(  2 -  2) =      4.26023  eV     1   --> A_1  L_1       
     e(  3 -  4) =      5.57181  eV     2   --> E    L_3       
     e(  5 -  5) =      8.24737  eV     1   --> A_1  L_1       
     e(  6 -  7) =      8.80970  eV     2   --> E    L_3       
     e(  8 -  8) =     10.26463  eV     1   --> A_1  L_1       

 **************************************************************************

 **************************************************************************

                    xk=(   0.10000,   0.10000,   0.10000  )

     Band symmetry, C_3v (3m)   point group:

     e(  1 -  1) =     -5.75317  eV     1   --> A_1  L_1       
     e(  2 -  2) =      4.70679  eV     1   --> A_1  L_1       
     e(  3 -  4) =      5.65954  eV     2   --> E    L_3       
     e(  5 -  5) =      8.33103  eV     1   --> A_1  L_1       
     e(  6 -  7) =      8.68132  eV     2   --> E    L_3       
     e(  8 -  8) =      9.83184  eV     1   --> A_1  L_1       

 **************************************************************************

 **************************************************************************

                    xk=(   0.07500,   0.07500,   0.07500  )

     Band symmetry, C_3v (3m)   point group:

     e(  1 -  1) =     -5.80865  eV     1   --> A_1  L_1       
     e(  2 -  2) =      5.12567  eV     1   --> A_1  L_1       
     e(  3 -  4) =      5.73676  eV     2   --> E    L_3       
     e(  5 -  5) =      8.39615  eV     1   --> A_1  L_1       
     e(  6 -  7) =      8.56727  eV     2   --> E    L_3       
     e(  8 -  8) =      9.43132  eV     1   --> A_1  L_1       

 **************************************************************************

 **************************************************************************

                    xk=(   0.05000,   0.05000,   0.05000  )

     Band symmetry, C_3v (3m)   point group:

     e(  1 -  1) =     -5.84839  eV     1   --> A_1  L_1       
     e(  2 -  2) =      5.48974  eV     1   --> A_1  L_1       
     e(  3 -  4) =      5.79789  eV     2   --> E    L_3       
     e(  5 -  5) =      8.43003  eV     1   --> A_1  L_1       
     e(  6 -  7) =      8.47708  eV     2   --> E    L_3       
     e(  8 -  8) =      9.09771  eV     1   --> A_1  L_1       

 **************************************************************************

 **************************************************************************

                    xk=(   0.02500,   0.02500,   0.02500  )

     Band symmetry, C_3v (3m)   point group:

     e(  1 -  1) =     -5.87228  eV     1   --> A_1  L_1       
     e(  2 -  2) =      5.75232  eV     1   --> A_1  L_1       
     e(  3 -  4) =      5.83744  eV     2   --> E    L_3       
     e(  5 -  6) =      8.41905  eV     2   --> E    L_3       
     e(  7 -  7) =      8.41961  eV     1   --> A_1  L_1       
     e(  8 -  8) =      8.88626  eV     1   --> A_1  L_1       

 **************************************************************************

 **************************************************************************

                    xk=(   0.00000,   0.00000,   0.00000  )

     point group O_h (m-3m) 
     there are 10 classes
     the character table:

       E     8C3   3C2   6C4   6C2'  i     8S6   3s_h  6S4   6s_d 
A_1g   1.00  1.00  1.00  1.00  1.00  1.00  1.00  1.00  1.00  1.00
A_2g   1.00  1.00  1.00 -1.00 -1.00  1.00  1.00  1.00 -1.00 -1.00
E_g    2.00 -1.00  2.00  0.00  0.00  2.00 -1.00  2.00  0.00  0.00
T_1g   3.00  0.00 -1.00  1.00 -1.00  3.00  0.00 -1.00  1.00 -1.00
T_2g   3.00  0.00 -1.00 -1.00  1.00  3.00  0.00 -1.00 -1.00  1.00
A_1u   1.00  1.00  1.00  1.00  1.00 -1.00 -1.00 -1.00 -1.00 -1.00
A_2u   1.00  1.00  1.00 -1.00 -1.00 -1.00 -1.00 -1.00  1.00  1.00
E_u    2.00 -1.00  2.00  0.00  0.00 -2.00  1.00 -2.00  0.00  0.00
T_1u   3.00  0.00 -1.00  1.00 -1.00 -3.00  0.00  1.00 -1.00  1.00
T_2u   3.00  0.00 -1.00 -1.00  1.00 -3.00  0.00  1.00  1.00 -1.00

     the symmetry operations in each class and the name of the first element:

     E        1
                                                                 
     8C3     17   19   20   18   24   21   22   23
                                                                 
     3C2      2    4    3
                                                                 
     6C4      7    8   15   16   12   11
                                                                 
     6C2'     5    6   14   13   10    9
                                                                 
     i       25
                                                                 
     8S6     41   43   44   42   48   45   46   47
                                                                 
     3s_h    26   28   27
                                                                 
     6S4     31   32   39   40   36   35
                                                                 
     6s_d    29   30   38   37   34   33
                                                                 

     Band symmetry, O_h (m-3m)  point group:

     e(  1 -  1) =     -5.88025  eV     1   --> A_1g G_1   G_1+
     e(  2 -  4) =      5.85116  eV     3   --> T_2g G_25' G_5+
     e(  5 -  7) =      8.39900  eV     3   --> T_1u G_15  G_4-
     e(  8 -  8) =      8.82198  eV     1   --> A_2u G_2'  G_2-

 **************************************************************************

 **************************************************************************

                    xk=(   0.03333,   0.00000,   0.00000  )

     point group C_4v (4mm) 
     there are  5 classes
     the character table:

       E     2C4   C2    2s_v  2s_d 
A_1    1.00  1.00  1.00  1.00  1.00
A_2    1.00  1.00  1.00 -1.00 -1.00
B_1    1.00 -1.00  1.00  1.00 -1.00
B_2    1.00 -1.00  1.00 -1.00  1.00
E      2.00  0.00 -2.00  0.00  0.00

     the symmetry operations in each class and the name of the first element:

     E        1
                                                                 
     2C4      3    4
                                                                 
     C2       2
                                                                 
     2s_v     5    6
                                                                 
     2s_d     7    8
                                                                 

     Band symmetry, C_4v (4mm)  point group:

     e(  1 -  1) =     -5.87552  eV     1   --> A_1  G_1 D_1   
     e(  2 -  2) =      5.81527  eV     1   --> B_2  G_4 D_2'  
     e(  3 -  4) =      5.83098  eV     2   --> E    G_5 D_5   
     e(  5 -  5) =      8.38726  eV     1   --> A_1  G_1 D_1   
     e(  6 -  7) =      8.42501  eV     2   --> E    G_5 D_5   
     e(  8 -  8) =      8.85720  eV     1   --> B_2  G_4 D_2'  

 **************************************************************************

 **************************************************************************

                    xk=(   0.06667,   0.00000,   0.00000  )

     Band symmetry, C_4v (4mm)  point group:

     e(  1 -  1) =     -5.86136  eV     1   --> A_1  G_1 D_1   
     e(  2 -  2) =      5.71256  eV     1   --> B_2  G_4 D_2'  
     e(  3 -  4) =      5.77289  eV     2   --> E    G_5 D_5   
     e(  5 -  5) =      8.35266  eV     1   --> A_1  G_1 D_1   
     e(  6 -  7) =      8.50059  eV     2   --> E    G_5 D_5   
     e(  8 -  8) =      8.95736  eV     1   --> B_2  G_4 D_2'  

 **************************************************************************

 **************************************************************************

                    xk=(   0.10000,   0.00000,   0.00000  )

     Band symmetry, C_4v (4mm)  point group:

     e(  1 -  1) =     -5.83775  eV     1   --> A_1  G_1 D_1   
     e(  2 -  2) =      5.55505  eV     1   --> B_2  G_4 D_2'  
     e(  3 -  4) =      5.68309  eV     2   --> E    G_5 D_5   
     e(  5 -  5) =      8.29701  eV     1   --> A_1  G_1 D_1   
     e(  6 -  7) =      8.61948  eV     2   --> E    G_5 D_5   
     e(  8 -  8) =      9.10878  eV     1   --> B_2  G_4 D_2'  

 **************************************************************************

 **************************************************************************

                    xk=(   0.13333,   0.00000,   0.00000  )

     Band symmetry, C_4v (4mm)  point group:

     e(  1 -  1) =     -5.80473  eV     1   --> A_1  G_1 D_1   
     e(  2 -  2) =      5.35643  eV     1   --> B_2  G_4 D_2'  
     e(  3 -  4) =      5.56926  eV     2   --> E    G_5 D_5   
     e(  5 -  5) =      8.22296  eV     1   --> A_1  G_1 D_1   
     e(  6 -  7) =      8.77396  eV     2   --> E    G_5 D_5   
     e(  8 -  8) =      9.29446  eV     1   --> B_2  G_4 D_2'  

 **************************************************************************

 **************************************************************************

                    xk=(   0.16667,   0.00000,   0.00000  )

     Band symmetry, C_4v (4mm)  point group:

     e(  1 -  1) =     -5.76231  eV     1   --> A_1  G_1 D_1   
     e(  2 -  2) =      5.12849  eV     1   --> B_2  G_4 D_2'  
     e(  3 -  4) =      5.43867  eV     2   --> E    G_5 D_5   
     e(  5 -  5) =      8.13367  eV     1   --> A_1  G_1 D_1   
     e(  6 -  7) =      8.95665  eV     2   --> E    G_5 D_5   
     e(  8 -  8) =      9.49692  eV     1   --> B_2  G_4 D_2'  

 **************************************************************************

 **************************************************************************

                    xk=(   0.20000,   0.00000,   0.00000  )

     Band symmetry, C_4v (4mm)  point group:

     e(  1 -  1) =     -5.71051  eV     1   --> A_1  G_1 D_1   
     e(  2 -  2) =      4.88007  eV     1   --> B_2  G_4 D_2'  
     e(  3 -  4) =      5.29733  eV     2   --> E    G_5 D_5   
     e(  5 -  5) =      8.03247  eV     1   --> A_1  G_1 D_1   
     e(  6 -  7) =      9.16146  eV     2   --> E    G_5 D_5   
     e(  8 -  8) =      9.69758  eV     1   --> B_2  G_4 D_2'  

 **************************************************************************

 **************************************************************************

                    xk=(   0.23333,   0.00000,   0.00000  )

     Band symmetry, C_4v (4mm)  point group:

     e(  1 -  1) =     -5.64938  eV     1   --> A_1  G_1 D_1   
     e(  2 -  2) =      4.61741  eV     1   --> B_2  G_4 D_2'  
     e(  3 -  4) =      5.14986  eV     2   --> E    G_5 D_5   
     e(  5 -  5) =      7.92255  eV     1   --> A_1  G_1 D_1   
     e(  6 -  7) =      9.38366  eV     2   --> E    G_5 D_5   
     e(  8 -  8) =      9.87418  eV     1   --> B_2  G_4 D_2'  

 **************************************************************************

 **************************************************************************

                    xk=(   0.26667,   0.00000,   0.00000  )

     Band symmetry, C_4v (4mm)  point group:

     e(  1 -  1) =     -5.57894  eV     1   --> A_1  G_1 D_1   
     e(  2 -  2) =      4.34480  eV     1   --> B_2  G_4 D_2'  
     e(  3 -  4) =      4.99970  eV     2   --> E    G_5 D_5   
     e(  5 -  5) =      7.80688  eV     1   --> A_1  G_1 D_1   
     e(  6 -  7) =      9.61967  eV     2   --> E    G_5 D_5   
     e(  8 -  8) =      9.99878  eV     1   --> B_2  G_4 D_2'  

 **************************************************************************

 **************************************************************************

                    xk=(   0.30000,   0.00000,   0.00000  )

     Band symmetry, C_4v (4mm)  point group:

     e(  1 -  1) =     -5.49924  eV     1   --> A_1  G_1 D_1   
     e(  2 -  2) =      4.06523  eV     1   --> B_2  G_4 D_2'  
     e(  3 -  4) =      4.84939  eV     2   --> E    G_5 D_5   
     e(  5 -  5) =      7.68804  eV     1   --> A_1  G_1 D_1   
     e(  6 -  7) =      9.86683  eV     2   --> E    G_5 D_5   
     e(  8 -  8) =     10.04262  eV     1   --> B_2  G_4 D_2'  

 **************************************************************************

 **************************************************************************

                    xk=(   0.33333,   0.00000,   0.00000  )

     Band symmetry, C_4v (4mm)  point group:

     e(  1 -  1) =     -5.41034  eV     1   --> A_1  G_1 D_1   
     e(  2 -  2) =      3.78074  eV     1   --> B_2  G_4 D_2'  
     e(  3 -  4) =      4.70083  eV     2   --> E    G_5 D_5   
     e(  5 -  5) =      7.56828  eV     1   --> A_1  G_1 D_1   
     e(  6 -  6) =      9.99237  eV     1   --> B_2  G_4 D_2'  
     e(  7 -  8) =     10.12307  eV     2   --> E    G_5 D_5   

 **************************************************************************

 **************************************************************************

                    xk=(   0.36667,   0.00000,   0.00000  )

     Band symmetry, C_4v (4mm)  point group:

     e(  1 -  1) =     -5.31230  eV     1   --> A_1  G_1 D_1   
     e(  2 -  2) =      3.49282  eV     1   --> B_2  G_4 D_2'  
     e(  3 -  4) =      4.55544  eV     2   --> E    G_5 D_5   
     e(  5 -  5) =      7.44952  eV     1   --> A_1  G_1 D_1   
     e(  6 -  6) =      9.86067  eV     1   --> B_2  G_4 D_2'  
     e(  7 -  8) =     10.38686  eV     2   --> E    G_5 D_5   

 **************************************************************************

 **************************************************************************

                    xk=(   0.40000,   0.00000,   0.00000  )

     Band symmetry, C_4v (4mm)  point group:

     e(  1 -  1) =     -5.20518  eV     1   --> A_1  G_1 D_1   
     e(  2 -  2) =      3.20252  eV     1   --> B_2  G_4 D_2'  
     e(  3 -  4) =      4.41432  eV     2   --> E    G_5 D_5   
     e(  5 -  5) =      7.33340  eV     1   --> A_1  G_1 D_1   
     e(  6 -  6) =      9.67390  eV     1   --> B_2  G_4 D_2'  
     e(  7 -  8) =     10.65699  eV     2   --> E    G_5 D_5   

 **************************************************************************

 **************************************************************************

                    xk=(   0.43333,   0.00000,   0.00000  )

     Band symmetry, C_4v (4mm)  point group:

     e(  1 -  1) =     -5.08907  eV     1   --> A_1  G_1 D_1   
     e(  2 -  2) =      2.91064  eV     1   --> B_2  G_4 D_2'  
     e(  3 -  4) =      4.27829  eV     2   --> E    G_5 D_5   
     e(  5 -  5) =      7.22127  eV     1   --> A_1  G_1 D_1   
     e(  6 -  6) =      9.45593  eV     1   --> B_2  G_4 D_2'  
     e(  7 -  8) =     10.93251  eV     2   --> E    G_5 D_5   

 **************************************************************************

 **************************************************************************

                    xk=(   0.46667,   0.00000,   0.00000  )

     Band symmetry, C_4v (4mm)  point group:

     e(  1 -  1) =     -4.96403  eV     1   --> A_1  G_1 D_1   
     e(  2 -  2) =      2.61779  eV     1   --> B_2  G_4 D_2'  
     e(  3 -  4) =      4.14801  eV     2   --> E    G_5 D_5   
     e(  5 -  5) =      7.11429  eV     1   --> A_1  G_1 D_1   
     e(  6 -  6) =      9.22309  eV     1   --> B_2  G_4 D_2'  
     e(  7 -  8) =     11.21267  eV     2   --> E    G_5 D_5   

 **************************************************************************

 **************************************************************************

                    xk=(   0.50000,   0.00000,   0.00000  )

     Band symmetry, C_4v (4mm)  point group:

     e(  1 -  1) =     -4.83017  eV     1   --> A_1  G_1 D_1   
     e(  2 -  2) =      2.32449  eV     1   --> B_2  G_4 D_2'  
     e(  3 -  4) =      4.02401  eV     2   --> E    G_5 D_5   
     e(  5 -  5) =      7.01345  eV     1   --> A_1  G_1 D_1   
     e(  6 -  6) =      8.98568  eV     1   --> B_2  G_4 D_2'  
     e(  7 -  8) =     11.49687  eV     2   --> E    G_5 D_5   

 **************************************************************************

 **************************************************************************

                    xk=(   0.53333,   0.00000,   0.00000  )

     Band symmetry, C_4v (4mm)  point group:

     e(  1 -  1) =     -4.68759  eV     1   --> A_1  G_1 D_1   
     e(  2 -  2) =      2.03119  eV     1   --> B_2  G_4 D_2'  
     e(  3 -  4) =      3.90673  eV     2   --> E    G_5 D_5   
     e(  5 -  5) =      6.91960  eV     1   --> A_1  G_1 D_1   
     e(  6 -  6) =      8.75014  eV     1   --> B_2  G_4 D_2'  
     e(  7 -  8) =     11.78465  eV     2   --> E    G_5 D_5   

 **************************************************************************

 **************************************************************************

                    xk=(   0.56667,   0.00000,   0.00000  )

     Band symmetry, C_4v (4mm)  point group:

     e(  1 -  1) =     -4.53639  eV     1   --> A_1  G_1 D_1   
     e(  2 -  2) =      1.73828  eV     1   --> B_2  G_4 D_2'  
     e(  3 -  4) =      3.79649  eV     2   --> E    G_5 D_5   
     e(  5 -  5) =      6.83345  eV     1   --> A_1  G_1 D_1   
     e(  6 -  6) =      8.52055  eV     1   --> B_2  G_4 D_2'  
     e(  7 -  8) =     12.07560  eV     2   --> E    G_5 D_5   

 **************************************************************************

 **************************************************************************

                    xk=(   0.60000,   0.00000,   0.00000  )

     Band symmetry, C_4v (4mm)  point group:

     e(  1 -  1) =     -4.37670  eV     1   --> A_1  G_1 D_1   
     e(  2 -  2) =      1.44615  eV     1   --> B_2  G_4 D_2'  
     e(  3 -  4) =      3.69358  eV     2   --> E    G_5 D_5   
     e(  5 -  5) =      6.75562  eV     1   --> A_1  G_1 D_1   
     e(  6 -  6) =      8.29961  eV     1   --> B_2  G_4 D_2'  
     e(  7 -  8) =     12.36941  eV     2   --> E    G_5 D_5   

 **************************************************************************

 **************************************************************************

                    xk=(   0.63333,   0.00000,   0.00000  )

     Band symmetry, C_4v (4mm)  point group:

     e(  1 -  1) =     -4.20866  eV     1   --> A_1  G_1 D_1   
     e(  2 -  2) =      1.15517  eV     1   --> B_2  G_4 D_2'  
     e(  3 -  4) =      3.59825  eV     2   --> E    G_5 D_5   
     e(  5 -  5) =      6.68668  eV     1   --> A_1  G_1 D_1   
     e(  6 -  6) =      8.08911  eV     1   --> B_2  G_4 D_2'  
     e(  7 -  8) =     12.66584  eV     2   --> E    G_5 D_5   

 **************************************************************************

 **************************************************************************

                    xk=(   0.66667,   0.00000,   0.00000  )

     Band symmetry, C_4v (4mm)  point group:

     e(  1 -  1) =     -4.03240  eV     1   --> A_1  G_1 D_1   
     e(  2 -  2) =      0.86572  eV     1   --> B_2  G_4 D_2'  
     e(  3 -  4) =      3.51067  eV     2   --> E    G_5 D_5   
     e(  5 -  5) =      6.62709  eV     1   --> A_1  G_1 D_1   
     e(  6 -  6) =      7.89026  eV     1   --> B_2  G_4 D_2'  
     e(  7 -  8) =     12.96464  eV     2   --> E    G_5 D_5   

 **************************************************************************

 **************************************************************************

                    xk=(   0.70000,   0.00000,   0.00000  )

     Band symmetry, C_4v (4mm)  point group:

     e(  1 -  1) =     -3.84808  eV     1   --> A_1  G_1 D_1   
     e(  2 -  2) =      0.57818  eV     1   --> B_2  G_4 D_2'  
     e(  3 -  4) =      3.43103  eV     2   --> E    G_5 D_5   
     e(  5 -  5) =      6.57732  eV     1   --> A_1  G_1 D_1   
     e(  6 -  6) =      7.70389  eV     1   --> B_2  G_4 D_2'  
     e(  7 -  8) =     13.26556  eV     2   --> E    G_5 D_5   

 **************************************************************************

 **************************************************************************

                    xk=(   0.73333,   0.00000,   0.00000  )

     Band symmetry, C_4v (4mm)  point group:

     e(  1 -  1) =     -3.65589  eV     1   --> A_1  G_1 D_1   
     e(  2 -  2) =      0.29293  eV     1   --> B_2  G_4 D_2'  
     e(  3 -  4) =      3.35945  eV     2   --> E    G_5 D_5   
     e(  5 -  5) =      6.53775  eV     1   --> A_1  G_1 D_1   
     e(  6 -  6) =      7.53051  eV     1   --> B_2  G_4 D_2'  
     e(  7 -  8) =     13.56830  eV     2   --> E    G_5 D_5   

 **************************************************************************

 **************************************************************************

                    xk=(   0.76667,   0.00000,   0.00000  )

     Band symmetry, C_4v (4mm)  point group:

     e(  1 -  1) =     -3.45599  eV     1   --> A_1  G_1 D_1   
     e(  2 -  2) =      0.01037  eV     1   --> B_2  G_4 D_2'  
     e(  3 -  4) =      3.29606  eV     2   --> E    G_5 D_5   
     e(  5 -  5) =      6.50874  eV     1   --> A_1  G_1 D_1   
     e(  6 -  6) =      7.37046  eV     1   --> B_2  G_4 D_2'  
     e(  7 -  8) =     13.87240  eV     2   --> E    G_5 D_5   

 **************************************************************************

 **************************************************************************

                    xk=(   0.80000,   0.00000,   0.00000  )

     Band symmetry, C_4v (4mm)  point group:

     e(  1 -  1) =     -3.24858  eV     1   --> A_1  G_1 D_1   
     e(  2 -  2) =     -0.26911  eV     1   --> B_2  G_4 D_2'  
     e(  3 -  4) =      3.24093  eV     2   --> E    G_5 D_5   
     e(  5 -  5) =      6.49066  eV     1   --> A_1  G_1 D_1   
     e(  6 -  6) =      7.22394  eV     1   --> B_2  G_4 D_2'  
     e(  7 -  8) =     14.17715  eV     2   --> E    G_5 D_5   

 **************************************************************************

 **************************************************************************

                    xk=(   0.83333,   0.00000,   0.00000  )

     Band symmetry, C_4v (4mm)  point group:

     e(  1 -  1) =     -3.03389  eV     1   --> A_1  G_1 D_1   
     e(  2 -  2) =     -0.54511  eV     1   --> B_2  G_4 D_2'  
     e(  3 -  4) =      3.19417  eV     2   --> E    G_5 D_5   
     e(  5 -  5) =      6.48378  eV     1   --> A_1  G_1 D_1   
     e(  6 -  6) =      7.09100  eV     1   --> B_2  G_4 D_2'  
     e(  7 -  8) =     14.48128  eV     2   --> E    G_5 D_5   

 **************************************************************************

 **************************************************************************

                    xk=(   0.86667,   0.00000,   0.00000  )

     Band symmetry, C_4v (4mm)  point group:

     e(  1 -  1) =     -2.81214  eV     1   --> A_1  G_1 D_1   
     e(  2 -  2) =     -0.81726  eV     1   --> B_2  G_4 D_2'  
     e(  3 -  4) =      3.15583  eV     2   --> E    G_5 D_5   
     e(  5 -  5) =      6.48843  eV     1   --> A_1  G_1 D_1   
     e(  6 -  6) =      6.97163  eV     1   --> B_2  G_4 D_2'  
     e(  7 -  8) =     14.78234  eV     2   --> E    G_5 D_5   

 **************************************************************************

 **************************************************************************

                    xk=(   0.90000,   0.00000,   0.00000  )

     Band symmetry, C_4v (4mm)  point group:

     e(  1 -  1) =     -2.58358  eV     1   --> A_1  G_1 D_1   
     e(  2 -  2) =     -1.08517  eV     1   --> B_2  G_4 D_2'  
     e(  3 -  4) =      3.12595  eV     2   --> E    G_5 D_5   
     e(  5 -  5) =      6.50489  eV     1   --> A_1  G_1 D_1   
     e(  6 -  6) =      6.86577  eV     1   --> B_2  G_4 D_2'  
     e(  7 -  8) =     15.07526  eV     2   --> E    G_5 D_5   

 **************************************************************************

 **************************************************************************

                    xk=(   0.93333,   0.00000,   0.00000  )

     Band symmetry, C_4v (4mm)  point group:

     e(  1 -  1) =     -2.34848  eV     1   --> A_1  G_1 D_1   
     e(  2 -  2) =     -1.34846  eV     1   --> B_2  G_4 D_2'  
     e(  3 -  4) =      3.10459  eV     2   --> E    G_5 D_5   
     e(  5 -  5) =      6.53343  eV     1   --> A_1  G_1 D_1   
     e(  6 -  6) =      6.77328  eV     1   --> B_2  G_4 D_2'  
     e(  7 -  8) =     15.34808  eV     2   --> E    G_5 D_5   

 **************************************************************************

 **************************************************************************

                    xk=(   0.96667,   0.00000,   0.00000  )

     Band symmetry, C_4v (4mm)  point group:

     e(  1 -  1) =     -2.10711  eV     1   --> A_1  G_1 D_1   
     e(  2 -  2) =     -1.60677  eV     1   --> B_2  G_4 D_2'  
     e(  3 -  4) =      3.09176  eV     2   --> E    G_5 D_5   
     e(  5 -  5) =      6.57430  eV     1   --> A_1  G_1 D_1   
     e(  6 -  6) =      6.69400  eV     1   --> B_2  G_4 D_2'  
     e(  7 -  8) =     15.56905  eV     2   --> E    G_5 D_5   

 **************************************************************************

 **************************************************************************

                    xk=(   1.00000,   0.00000,   0.00000  )

     zone border point and non-symmorphic group 
     symmetry decomposition not available

 **************************************************************************

 **************************************************************************

                    xk=(   1.00000,   0.02500,   0.02500  )

     zone border point and non-symmorphic group 
     symmetry decomposition not available

 **************************************************************************

 **************************************************************************

                    xk=(   1.00000,   0.05000,   0.05000  )

     zone border point and non-symmorphic group 
     symmetry decomposition not available

 **************************************************************************

 **************************************************************************

                    xk=(   1.00000,   0.07500,   0.07500  )

     zone border point and non-symmorphic group 
     symmetry decomposition not available

 **************************************************************************

 **************************************************************************

                    xk=(   1.00000,   0.10000,   0.10000  )

     zone border point and non-symmorphic group 
     symmetry decomposition not available

 **************************************************************************

 **************************************************************************

                    xk=(   1.00000,   0.12500,   0.12500  )

     zone border point and non-symmorphic group 
     symmetry decomposition not available

 **************************************************************************

 **************************************************************************

                    xk=(   1.00000,   0.15000,   0.15000  )

     zone border point and non-symmorphic group 
     symmetry decomposition not available

 **************************************************************************

 **************************************************************************

                    xk=(   1.00000,   0.17500,   0.17500  )

     zone border point and non-symmorphic group 
     symmetry decomposition not available

 **************************************************************************

 **************************************************************************

                    xk=(   1.00000,   0.20000,   0.20000  )

     zone border point and non-symmorphic group 
     symmetry decomposition not available

 **************************************************************************

 **************************************************************************

                    xk=(   1.00000,   0.22500,   0.22500  )

     zone border point and non-symmorphic group 
     symmetry decomposition not available

 **************************************************************************

 **************************************************************************

                    xk=(   1.00000,   0.25000,   0.25000  )

     zone border point and non-symmorphic group 
     symmetry decomposition not available

 **************************************************************************

 **************************************************************************

                    xk=(   0.96667,   0.24167,   0.24167  )

     point group C_s (m)    
     there are  2 classes
     the character table:

       E     s    
A'     1.00  1.00
A''    1.00 -1.00

     the symmetry operations in each class and the name of the first element:

     E        1
                                                                 
     s        2
                                                                 

     Band symmetry, C_s (m)     point group:

     e(  1 -  1) =     -2.27800  eV     1   --> A'             
     e(  2 -  2) =     -1.28411  eV     1   --> A'             
     e(  3 -  3) =      1.75043  eV     1   --> A'             
     e(  4 -  4) =      3.47870  eV     1   --> A''            
     e(  5 -  5) =      7.07814  eV     1   --> A'             
     e(  6 -  6) =      9.79566  eV     1   --> A'             
     e(  7 -  7) =     13.20210  eV     1   --> A''            
     e(  8 -  8) =     13.54206  eV     1   --> A'             

 **************************************************************************

 **************************************************************************

                    xk=(   0.93333,   0.23333,   0.23333  )

     Band symmetry, C_s (m)     point group:

     e(  1 -  1) =     -2.35931  eV     1   --> A'             
     e(  2 -  2) =     -1.21051  eV     1   --> A'             
     e(  3 -  3) =      1.81986  eV     1   --> A'             
     e(  4 -  4) =      3.46492  eV     1   --> A''            
     e(  5 -  5) =      7.06540  eV     1   --> A'             
     e(  6 -  6) =      9.65111  eV     1   --> A'             
     e(  7 -  7) =     13.13103  eV     1   --> A''            
     e(  8 -  8) =     13.32247  eV     1   --> A'             

 **************************************************************************

 **************************************************************************

                    xk=(   0.90000,   0.22500,   0.22500  )

     Band symmetry, C_s (m)     point group:

     e(  1 -  1) =     -2.49858  eV     1   --> A'             
     e(  2 -  2) =     -1.07817  eV     1   --> A'             
     e(  3 -  3) =      1.91204  eV     1   --> A'             
     e(  4 -  4) =      3.45996  eV     1   --> A''            
     e(  5 -  5) =      7.06436  eV     1   --> A'             
     e(  6 -  6) =      9.52072  eV     1   --> A'             
     e(  7 -  7) =     13.01071  eV     1   --> A''            
     e(  8 -  8) =     13.10220  eV     1   --> A'             

 **************************************************************************

 **************************************************************************

                    xk=(   0.86667,   0.21667,   0.21667  )

     Band symmetry, C_s (m)     point group:

     e(  1 -  1) =     -2.67123  eV     1   --> A'             
     e(  2 -  2) =     -0.90854  eV     1   --> A'             
     e(  3 -  3) =      2.02356  eV     1   --> A'             
     e(  4 -  4) =      3.46394  eV     1   --> A''            
     e(  5 -  5) =      7.07461  eV     1   --> A'             
     e(  6 -  6) =      9.40538  eV     1   --> A'             
     e(  7 -  7) =     12.87009  eV     1   --> A''            
     e(  8 -  8) =     12.88304  eV     1   --> A'             

 **************************************************************************

 **************************************************************************

                    xk=(   0.83333,   0.20833,   0.20833  )

     Band symmetry, C_s (m)     point group:

     e(  1 -  1) =     -2.86125  eV     1   --> A'             
     e(  2 -  2) =     -0.71511  eV     1   --> A'             
     e(  3 -  3) =      2.15147  eV     1   --> A'             
     e(  4 -  4) =      3.47695  eV     1   --> A''            
     e(  5 -  5) =      7.09547  eV     1   --> A'             
     e(  6 -  6) =      9.30614  eV     1   --> A'             
     e(  7 -  7) =     12.66551  eV     1   --> A'             
     e(  8 -  8) =     12.72153  eV     1   --> A''            

 **************************************************************************

 **************************************************************************

                    xk=(   0.80000,   0.20000,   0.20000  )

     Band symmetry, C_s (m)     point group:

     e(  1 -  1) =     -3.05943  eV     1   --> A'             
     e(  2 -  2) =     -0.50504  eV     1   --> A'             
     e(  3 -  3) =      2.29325  eV     1   --> A'             
     e(  4 -  4) =      3.49904  eV     1   --> A''            
     e(  5 -  5) =      7.12602  eV     1   --> A'             
     e(  6 -  6) =      9.22424  eV     1   --> A'             
     e(  7 -  7) =     12.44990  eV     1   --> A'             
     e(  8 -  8) =     12.57020  eV     1   --> A''            

 **************************************************************************

 **************************************************************************

                    xk=(   0.76667,   0.19167,   0.19167  )

     Band symmetry, C_s (m)     point group:

     e(  1 -  1) =     -3.26034  eV     1   --> A'             
     e(  2 -  2) =     -0.28214  eV     1   --> A'             
     e(  3 -  3) =      2.44671  eV     1   --> A'             
     e(  4 -  4) =      3.53026  eV     1   --> A''            
     e(  5 -  5) =      7.16505  eV     1   --> A'             
     e(  6 -  6) =      9.16111  eV     1   --> A'             
     e(  7 -  7) =     12.23640  eV     1   --> A'             
     e(  8 -  8) =     12.41815  eV     1   --> A''            

 **************************************************************************

 **************************************************************************

                    xk=(   0.73333,   0.18333,   0.18333  )

     Band symmetry, C_s (m)     point group:

     e(  1 -  1) =     -3.46057  eV     1   --> A'             
     e(  2 -  2) =     -0.04854  eV     1   --> A'             
     e(  3 -  3) =      2.60994  eV     1   --> A'             
     e(  4 -  4) =      3.57061  eV     1   --> A''            
     e(  5 -  5) =      7.21101  eV     1   --> A'             
     e(  6 -  6) =      9.11836  eV     1   --> A'             
     e(  7 -  7) =     12.02520  eV     1   --> A'             
     e(  8 -  8) =     12.26588  eV     1   --> A''            

 **************************************************************************

 **************************************************************************

                    xk=(   0.70000,   0.17500,   0.17500  )

     Band symmetry, C_s (m)     point group:

     e(  1 -  1) =     -3.65782  eV     1   --> A'             
     e(  2 -  2) =      0.19446  eV     1   --> A'             
     e(  3 -  3) =      2.78120  eV     1   --> A'             
     e(  4 -  4) =      3.62007  eV     1   --> A''            
     e(  5 -  5) =      7.26212  eV     1   --> A'             
     e(  6 -  6) =      9.09773  eV     1   --> A'             
     e(  7 -  7) =     11.81654  eV     1   --> A'             
     e(  8 -  8) =     12.11302  eV     1   --> A''            

 **************************************************************************

 **************************************************************************

                    xk=(   0.66667,   0.16667,   0.16667  )

     Band symmetry, C_s (m)     point group:

     e(  1 -  1) =     -3.85046  eV     1   --> A'             
     e(  2 -  2) =      0.44606  eV     1   --> A'             
     e(  3 -  3) =      2.95893  eV     1   --> A'             
     e(  4 -  4) =      3.67859  eV     1   --> A''            
     e(  5 -  5) =      7.31646  eV     1   --> A'             
     e(  6 -  6) =      9.10082  eV     1   --> A'             
     e(  7 -  7) =     11.61078  eV     1   --> A'             
     e(  8 -  8) =     11.95866  eV     1   --> A''            

 **************************************************************************

 **************************************************************************

                    xk=(   0.63333,   0.15833,   0.15833  )

     Band symmetry, C_s (m)     point group:

     e(  1 -  1) =     -4.03729  eV     1   --> A'             
     e(  2 -  2) =      0.70567  eV     1   --> A'             
     e(  3 -  3) =      3.14168  eV     1   --> A'             
     e(  4 -  4) =      3.74609  eV     1   --> A''            
     e(  5 -  5) =      7.37214  eV     1   --> A'             
     e(  6 -  6) =      9.12882  eV     1   --> A'             
     e(  7 -  7) =     11.40848  eV     1   --> A'             
     e(  8 -  8) =     11.80147  eV     1   --> A''            

 **************************************************************************

 **************************************************************************

                    xk=(   0.60000,   0.15000,   0.15000  )

     Band symmetry, C_s (m)     point group:

     e(  1 -  1) =     -4.21740  eV     1   --> A'             
     e(  2 -  2) =      0.97288  eV     1   --> A'             
     e(  3 -  3) =      3.32809  eV     1   --> A'             
     e(  4 -  4) =      3.82247  eV     1   --> A''            
     e(  5 -  5) =      7.42767  eV     1   --> A'             
     e(  6 -  6) =      9.18204  eV     1   --> A'             
     e(  7 -  7) =     11.21056  eV     1   --> A'             
     e(  8 -  8) =     11.63991  eV     1   --> A''            

 **************************************************************************

 **************************************************************************

                    xk=(   0.56667,   0.14167,   0.14167  )

     Band symmetry, C_s (m)     point group:

     e(  1 -  1) =     -4.39007  eV     1   --> A'             
     e(  2 -  2) =      1.24731  eV     1   --> A'             
     e(  3 -  3) =      3.51690  eV     1   --> A'             
     e(  4 -  4) =      3.90757  eV     1   --> A''            
     e(  5 -  5) =      7.48211  eV     1   --> A'             
     e(  6 -  6) =      9.25923  eV     1   --> A'             
     e(  7 -  7) =     11.01850  eV     1   --> A'             
     e(  8 -  8) =     11.47232  eV     1   --> A''            

 **************************************************************************

 **************************************************************************

                    xk=(   0.53333,   0.13333,   0.13333  )

     Band symmetry, C_s (m)     point group:

     e(  1 -  1) =     -4.55474  eV     1   --> A'             
     e(  2 -  2) =      1.52864  eV     1   --> A'             
     e(  3 -  3) =      3.70690  eV     1   --> A'             
     e(  4 -  4) =      4.00122  eV     1   --> A''            
     e(  5 -  5) =      7.53529  eV     1   --> A'             
     e(  6 -  6) =      9.35680  eV     1   --> A'             
     e(  7 -  7) =     10.83503  eV     1   --> A'             
     e(  8 -  8) =     11.29713  eV     1   --> A''            

 **************************************************************************

 **************************************************************************

                    xk=(   0.50000,   0.12500,   0.12500  )

     Band symmetry, C_s (m)     point group:

     e(  1 -  1) =     -4.71093  eV     1   --> A'             
     e(  2 -  2) =      1.81654  eV     1   --> A'             
     e(  3 -  3) =      3.89694  eV     1   --> A'             
     e(  4 -  4) =      4.10315  eV     1   --> A''            
     e(  5 -  5) =      7.58766  eV     1   --> A'             
     e(  6 -  6) =      9.46717  eV     1   --> A'             
     e(  7 -  7) =     10.66542  eV     1   --> A'             
     e(  8 -  8) =     11.11304  eV     1   --> A''            

 **************************************************************************

 **************************************************************************

                    xk=(   0.46667,   0.11667,   0.11667  )

     Band symmetry, C_s (m)     point group:

     e(  1 -  1) =     -4.85828  eV     1   --> A'             
     e(  2 -  2) =      2.11063  eV     1   --> A'             
     e(  3 -  3) =      4.08589  eV     1   --> A'             
     e(  4 -  4) =      4.21308  eV     1   --> A''            
     e(  5 -  5) =      7.64017  eV     1   --> A'             
     e(  6 -  6) =      9.57527  eV     1   --> A'             
     e(  7 -  7) =     10.52083  eV     1   --> A'             
     e(  8 -  8) =     10.91928  eV     1   --> A''            

 **************************************************************************

 **************************************************************************

                    xk=(   0.43333,   0.10833,   0.10833  )

     Band symmetry, C_s (m)     point group:

     e(  1 -  1) =     -4.99647  eV     1   --> A'             
     e(  2 -  2) =      2.41048  eV     1   --> A'             
     e(  3 -  3) =      4.27266  eV     1   --> A'             
     e(  4 -  4) =      4.33060  eV     1   --> A''            
     e(  5 -  5) =      7.69391  eV     1   --> A'             
     e(  6 -  6) =      9.65203  eV     1   --> A'             
     e(  7 -  7) =     10.42423  eV     1   --> A'             
     e(  8 -  8) =     10.71574  eV     1   --> A''            

 **************************************************************************

 **************************************************************************

                    xk=(   0.40000,   0.10000,   0.10000  )

     Band symmetry, C_s (m)     point group:

     e(  1 -  1) =     -5.12524  eV     1   --> A'             
     e(  2 -  2) =      2.71558  eV     1   --> A'             
     e(  3 -  3) =      4.45522  eV     1   --> A''            
     e(  4 -  4) =      4.45615  eV     1   --> A'             
     e(  5 -  5) =      7.74992  eV     1   --> A'             
     e(  6 -  6) =      9.65858  eV     1   --> A'             
     e(  7 -  7) =     10.40483  eV     1   --> A'             
     e(  8 -  8) =     10.50313  eV     1   --> A''            

 **************************************************************************

 **************************************************************************

                    xk=(   0.36667,   0.09167,   0.09167  )

     Band symmetry, C_s (m)     point group:

     e(  1 -  1) =     -5.24435  eV     1   --> A'             
     e(  2 -  2) =      3.02525  eV     1   --> A'             
     e(  3 -  3) =      4.58631  eV     1   --> A''            
     e(  4 -  4) =      4.63521  eV     1   --> A'             
     e(  5 -  5) =      7.80896  eV     1   --> A'             
     e(  6 -  6) =      9.58726  eV     1   --> A'             
     e(  7 -  7) =     10.28292  eV     1   --> A''            
     e(  8 -  8) =     10.45418  eV     1   --> A'             

 **************************************************************************

 **************************************************************************

                    xk=(   0.33333,   0.08333,   0.08333  )

     Band symmetry, C_s (m)     point group:

     e(  1 -  1) =     -5.35363  eV     1   --> A'             
     e(  2 -  2) =      3.33863  eV     1   --> A'             
     e(  3 -  3) =      4.72304  eV     1   --> A''            
     e(  4 -  4) =      4.80867  eV     1   --> A'             
     e(  5 -  5) =      7.87141  eV     1   --> A'             
     e(  6 -  6) =      9.46954  eV     1   --> A'             
     e(  7 -  7) =     10.05729  eV     1   --> A''            
     e(  8 -  8) =     10.51384  eV     1   --> A'             

 **************************************************************************

 **************************************************************************

                    xk=(   0.30000,   0.07500,   0.07500  )

     Band symmetry, C_s (m)     point group:

     e(  1 -  1) =     -5.45291  eV     1   --> A'             
     e(  2 -  2) =      3.65458  eV     1   --> A'             
     e(  3 -  3) =      4.86433  eV     1   --> A''            
     e(  4 -  4) =      4.97522  eV     1   --> A'             
     e(  5 -  5) =      7.93719  eV     1   --> A'             
     e(  6 -  6) =      9.33298  eV     1   --> A'             
     e(  7 -  7) =      9.82900  eV     1   --> A''            
     e(  8 -  8) =     10.51768  eV     1   --> A'             

 **************************************************************************

 **************************************************************************

                    xk=(   0.26667,   0.06667,   0.06667  )

     Band symmetry, C_s (m)     point group:

     e(  1 -  1) =     -5.54207  eV     1   --> A'             
     e(  2 -  2) =      3.97153  eV     1   --> A'             
     e(  3 -  3) =      5.00877  eV     1   --> A''            
     e(  4 -  4) =      5.13343  eV     1   --> A'             
     e(  5 -  5) =      8.00566  eV     1   --> A'             
     e(  6 -  6) =      9.19159  eV     1   --> A'             
     e(  7 -  7) =      9.60125  eV     1   --> A''            
     e(  8 -  8) =     10.42168  eV     1   --> A'             

 **************************************************************************

 **************************************************************************

                    xk=(   0.23333,   0.05833,   0.05833  )

     Band symmetry, C_s (m)     point group:

     e(  1 -  1) =     -5.62097  eV     1   --> A'             
     e(  2 -  2) =      4.28725  eV     1   --> A'             
     e(  3 -  3) =      5.15444  eV     1   --> A''            
     e(  4 -  4) =      5.28168  eV     1   --> A'             
     e(  5 -  5) =      8.07559  eV     1   --> A'             
     e(  6 -  6) =      9.05240  eV     1   --> A'             
     e(  7 -  7) =      9.37776  eV     1   --> A''            
     e(  8 -  8) =     10.22887  eV     1   --> A'             

 **************************************************************************

 **************************************************************************

                    xk=(   0.20000,   0.05000,   0.05000  )

     Band symmetry, C_s (m)     point group:

     e(  1 -  1) =     -5.68954  eV     1   --> A'             
     e(  2 -  2) =      4.59855  eV     1   --> A'             
     e(  3 -  3) =      5.29874  eV     1   --> A''            
     e(  4 -  4) =      5.41809  eV     1   --> A'             
     e(  5 -  5) =      8.14518  eV     1   --> A'             
     e(  6 -  6) =      8.91948  eV     1   --> A'             
     e(  7 -  7) =      9.16273  eV     1   --> A''            
     e(  8 -  8) =      9.97538  eV     1   --> A'             

 **************************************************************************

 **************************************************************************

                    xk=(   0.16667,   0.04167,   0.04167  )

     Band symmetry, C_s (m)     point group:

     e(  1 -  1) =     -5.74768  eV     1   --> A'             
     e(  2 -  2) =      4.90064  eV     1   --> A'             
     e(  3 -  3) =      5.43814  eV     1   --> A''            
     e(  4 -  4) =      5.54050  eV     1   --> A'             
     e(  5 -  5) =      8.21200  eV     1   --> A'             
     e(  6 -  6) =      8.79552  eV     1   --> A'             
     e(  7 -  7) =      8.96114  eV     1   --> A''            
     e(  8 -  8) =      9.69767  eV     1   --> A'             

 **************************************************************************

 **************************************************************************

                    xk=(   0.13333,   0.03333,   0.03333  )

     Band symmetry, C_s (m)     point group:

     e(  1 -  1) =     -5.79534  eV     1   --> A'             
     e(  2 -  2) =      5.18614  eV     1   --> A'             
     e(  3 -  3) =      5.56789  eV     1   --> A''            
     e(  4 -  4) =      5.64640  eV     1   --> A'             
     e(  5 -  5) =      8.27312  eV     1   --> A'             
     e(  6 -  6) =      8.68225  eV     1   --> A'             
     e(  7 -  7) =      8.77895  eV     1   --> A''            
     e(  8 -  8) =      9.42362  eV     1   --> A'             

 **************************************************************************

 **************************************************************************

                    xk=(   0.10000,   0.02500,   0.02500  )

     Band symmetry, C_s (m)     point group:

     e(  1 -  1) =     -5.83246  eV     1   --> A'             
     e(  2 -  2) =      5.44366  eV     1   --> A'             
     e(  3 -  3) =      5.68174  eV     1   --> A''            
     e(  4 -  4) =      5.73305  eV     1   --> A'             
     e(  5 -  5) =      8.32530  eV     1   --> A'             
     e(  6 -  6) =      8.58057  eV     1   --> A'             
     e(  7 -  7) =      8.62334  eV     1   --> A''            
     e(  8 -  8) =      9.17741  eV     1   --> A'             

 **************************************************************************

 **************************************************************************

                    xk=(   0.06667,   0.01667,   0.01667  )

     Band symmetry, C_s (m)     point group:

     e(  1 -  1) =     -5.85900  eV     1   --> A'             
     e(  2 -  2) =      5.65594  eV     1   --> A'             
     e(  3 -  3) =      5.77206  eV     1   --> A''            
     e(  4 -  4) =      5.79764  eV     1   --> A'             
     e(  5 -  5) =      8.36532  eV     1   --> A'             
     e(  6 -  6) =      8.49207  eV     1   --> A'             
     e(  7 -  7) =      8.50268  eV     1   --> A''            
     e(  8 -  8) =      8.98345  eV     1   --> A'             

 **************************************************************************

 **************************************************************************

                    xk=(   0.03333,   0.00833,   0.00833  )

     Band symmetry, C_s (m)     point group:

     e(  1 -  1) =     -5.87493  eV     1   --> A'             
     e(  2 -  2) =      5.79968  eV     1   --> A'             
     e(  3 -  3) =      5.83073  eV     1   --> A''            
     e(  4 -  4) =      5.83761  eV     1   --> A'             
     e(  5 -  5) =      8.39045  eV     1   --> A'             
     e(  6 -  6) =      8.42522  eV     1   --> A'             
     e(  7 -  7) =      8.42559  eV     1   --> A''            
     e(  8 -  8) =      8.86232  eV     1   --> A'             

 **************************************************************************

 **************************************************************************

                    xk=(   0.00000,   0.00000,   0.00000  )

     point group O_h (m-3m) 
     there are 10 classes
     the character table:

       E     8C3   3C2   6C4   6C2'  i     8S6   3s_h  6S4   6s_d 
A_1g   1.00  1.00  1.00  1.00  1.00  1.00  1.00  1.00  1.00  1.00
A_2g   1.00  1.00  1.00 -1.00 -1.00  1.00  1.00  1.00 -1.00 -1.00
E_g    2.00 -1.00  2.00  0.00  0.00  2.00 -1.00  2.00  0.00  0.00
T_1g   3.00  0.00 -1.00  1.00 -1.00  3.00  0.00 -1.00  1.00 -1.00
T_2g   3.00  0.00 -1.00 -1.00  1.00  3.00  0.00 -1.00 -1.00  1.00
A_1u   1.00  1.00  1.00  1.00  1.00 -1.00 -1.00 -1.00 -1.00 -1.00
A_2u   1.00  1.00  1.00 -1.00 -1.00 -1.00 -1.00 -1.00  1.00  1.00
E_u    2.00 -1.00  2.00  0.00  0.00 -2.00  1.00 -2.00  0.00  0.00
T_1u   3.00  0.00 -1.00  1.00 -1.00 -3.00  0.00  1.00 -1.00  1.00
T_2u   3.00  0.00 -1.00 -1.00  1.00 -3.00  0.00  1.00  1.00 -1.00

     the symmetry operations in each class and the name of the first element:

     E        1
                                                                 
     8C3     17   19   20   18   24   21   22   23
                                                                 
     3C2      2    4    3
                                                                 
     6C4      7    8   15   16   12   11
                                                                 
     6C2'     5    6   14   13   10    9
                                                                 
     i       25
                                                                 
     8S6     41   43   44   42   48   45   46   47
                                                                 
     3s_h    26   28   27
                                                                 
     6S4     31   32   39   40   36   35
                                                                 
     6s_d    29   30   38   37   34   33
                                                                 

     Band symmetry, O_h (m-3m)  point group:

     e(  1 -  1) =     -5.88025  eV     1   --> A_1g G_1   G_1+
     e(  2 -  4) =      5.85116  eV     3   --> T_2g G_25' G_5+
     e(  5 -  7) =      8.39900  eV     3   --> T_1u G_15  G_4-
     e(  8 -  8) =      8.82198  eV     1   --> A_2u G_2'  G_2-

 **************************************************************************

     BANDS        :     15.80s CPU     13.17s WALL


   This run was terminated on:  11: 0:25  22May2024            

=------------------------------------------------------------------------------=
   JOB DONE.
=------------------------------------------------------------------------------=
