
     Program PWSCF v.6.7MaX starts on 22May2024 at 10:37:57 

     This program is part of the open-source Quantum ESPRESSO suite
     for quantum simulation of materials; please cite
         "P. Giannozzi et al., J. Phys.:Condens. Matter 21 395502 (2009);
         "P. Giannozzi et al., J. Phys.:Condens. Matter 29 465901 (2017);
          URL http://www.quantum-espresso.org", 
     in publications or presentations arising from this work. More details at
     http://www.quantum-espresso.org/quote

     Parallel version (MPI), running on     1 processors

     MPI processes distributed on     1 nodes
     Waiting for input...
     Reading input from standard input

     Current dimensions of program PWSCF are:
     Max number of different atomic species (ntypx) = 10
     Max number of k-points (npk) =  40000
     Max angular momentum in pseudopotentials (lmaxx) =  3

     Atomic positions and unit cell read from directory:
     ././silicon.save/

     file Si.UPF: wavefunction(s)  3S 3P renormalized

     Subspace diagonalization in iterative solution of the eigenvalue problem:
     a serial algorithm will be used


     G-vector sticks info
     --------------------
     sticks:   dense  smooth     PW     G-vecs:    dense   smooth      PW
     Sum        1495     745    211                37917    13371    2109



     bravais-lattice index     =            2
     lattice parameter (alat)  =      10.3800  a.u.
     unit-cell volume          =     279.5967 (a.u.)^3
     number of atoms/cell      =            2
     number of atomic types    =            1
     number of electrons       =         8.00
     number of Kohn-Sham states=            8
     kinetic-energy cutoff     =      50.0000  Ry
     charge density cutoff     =     400.0000  Ry
     Exchange-correlation= SLA  PW   PBX  PBC
                           (   1   4   3   4   0   0   0)

     celldm(1)=  10.380000  celldm(2)=   0.000000  celldm(3)=   0.000000
     celldm(4)=   0.000000  celldm(5)=   0.000000  celldm(6)=   0.000000

     crystal axes: (cart. coord. in units of alat)
               a(1) = (  -0.500000   0.000000   0.500000 )  
               a(2) = (   0.000000   0.500000   0.500000 )  
               a(3) = (  -0.500000   0.500000   0.000000 )  

     reciprocal axes: (cart. coord. in units 2 pi/alat)
               b(1) = ( -1.000000 -1.000000  1.000000 )  
               b(2) = (  1.000000  1.000000  1.000000 )  
               b(3) = ( -1.000000  1.000000 -1.000000 )  


     PseudoPot. # 1 for Si read from file:
     ././Si.UPF
     MD5 check sum: c39c59da582df4a0d9f10159256ea34e
     Pseudo is Projector augmented-wave + core cor, Zval =  4.0
     Generated using &quot;atomic&quot; code by A. Dal Corso  v.6.3
     Shape of augmentation charge: PSQ
     Using radial grid of 1141 points,  6 beta functions with: 
                l(1) =   0
                l(2) =   0
                l(3) =   1
                l(4) =   1
                l(5) =   2
                l(6) =   2
     Q(r) pseudized with 0 coefficients 


     atomic species   valence    mass     pseudopotential
        Si             4.00    28.08600     Si( 1.00)

     48 Sym. Ops., with inversion, found (24 have fractional translation)


                                    s                        frac. trans.

      isym =  1     identity                                     

 cryst.   s( 1) = (     1          0          0      )
                  (     0          1          0      )
                  (     0          0          1      )

 cart.    s( 1) = (  1.0000000  0.0000000  0.0000000 )
                  (  0.0000000  1.0000000  0.0000000 )
                  (  0.0000000  0.0000000  1.0000000 )


      isym =  2     180 deg rotation - cart. axis [0,0,1]        

 cryst.   s( 2) = (     0          1         -1      )
                  (     1          0         -1      )
                  (     0          0         -1      )

 cart.    s( 2) = ( -1.0000000  0.0000000  0.0000000 )
                  (  0.0000000 -1.0000000  0.0000000 )
                  (  0.0000000  0.0000000  1.0000000 )


      isym =  3     180 deg rotation - cart. axis [0,1,0]        

 cryst.   s( 3) = (    -1          0          0      )
                  (    -1          0          1      )
                  (    -1          1          0      )

 cart.    s( 3) = ( -1.0000000  0.0000000  0.0000000 )
                  (  0.0000000  1.0000000  0.0000000 )
                  (  0.0000000  0.0000000 -1.0000000 )


      isym =  4     180 deg rotation - cart. axis [1,0,0]        

 cryst.   s( 4) = (     0         -1          1      )
                  (     0         -1          0      )
                  (     1         -1          0      )

 cart.    s( 4) = (  1.0000000  0.0000000  0.0000000 )
                  (  0.0000000 -1.0000000  0.0000000 )
                  (  0.0000000  0.0000000 -1.0000000 )


      isym =  5     180 deg rotation - cart. axis [1,1,0]        

 cryst.   s( 5) = (     0         -1          0      )    f =(  0.2500000 )
                  (    -1          0          0      )       (  0.2500000 )
                  (     0          0         -1      )       (  0.2500000 )

 cart.    s( 5) = (  0.0000000  1.0000000  0.0000000 )    f =( -0.2500000 )
                  (  1.0000000  0.0000000  0.0000000 )       (  0.2500000 )
                  (  0.0000000  0.0000000 -1.0000000 )       (  0.2500000 )


      isym =  6     180 deg rotation - cart. axis [1,-1,0]       

 cryst.   s( 6) = (    -1          0          1      )    f =(  0.2500000 )
                  (     0         -1          1      )       (  0.2500000 )
                  (     0          0          1      )       (  0.2500000 )

 cart.    s( 6) = (  0.0000000 -1.0000000  0.0000000 )    f =( -0.2500000 )
                  ( -1.0000000  0.0000000  0.0000000 )       (  0.2500000 )
                  (  0.0000000  0.0000000 -1.0000000 )       (  0.2500000 )


      isym =  7      90 deg rotation - cart. axis [0,0,-1]       

 cryst.   s( 7) = (     0          1          0      )    f =(  0.2500000 )
                  (     0          1         -1      )       (  0.2500000 )
                  (    -1          1          0      )       (  0.2500000 )

 cart.    s( 7) = (  0.0000000  1.0000000  0.0000000 )    f =( -0.2500000 )
                  ( -1.0000000  0.0000000  0.0000000 )       (  0.2500000 )
                  (  0.0000000  0.0000000  1.0000000 )       (  0.2500000 )


      isym =  8      90 deg rotation - cart. axis [0,0,1]        

 cryst.   s( 8) = (     1          0         -1      )    f =(  0.2500000 )
                  (     1          0          0      )       (  0.2500000 )
                  (     1         -1          0      )       (  0.2500000 )

 cart.    s( 8) = (  0.0000000 -1.0000000  0.0000000 )    f =( -0.2500000 )
                  (  1.0000000  0.0000000  0.0000000 )       (  0.2500000 )
                  (  0.0000000  0.0000000  1.0000000 )       (  0.2500000 )


      isym =  9     180 deg rotation - cart. axis [1,0,1]        

 cryst.   s( 9) = (    -1          0          0      )    f =(  0.2500000 )
                  (     0          0         -1      )       (  0.2500000 )
                  (     0         -1          0      )       (  0.2500000 )

 cart.    s( 9) = (  0.0000000  0.0000000  1.0000000 )    f =( -0.2500000 )
                  (  0.0000000 -1.0000000  0.0000000 )       (  0.2500000 )
                  (  1.0000000  0.0000000  0.0000000 )       (  0.2500000 )


      isym = 10     180 deg rotation - cart. axis [-1,0,1]       

 cryst.   s(10) = (     1          0          0      )    f =(  0.2500000 )
                  (     1         -1          0      )       (  0.2500000 )
                  (     1          0         -1      )       (  0.2500000 )

 cart.    s(10) = (  0.0000000  0.0000000 -1.0000000 )    f =( -0.2500000 )
                  (  0.0000000 -1.0000000  0.0000000 )       (  0.2500000 )
                  ( -1.0000000  0.0000000  0.0000000 )       (  0.2500000 )


      isym = 11      90 deg rotation - cart. axis [0,1,0]        

 cryst.   s(11) = (     0          1         -1      )    f =(  0.2500000 )
                  (    -1          1          0      )       (  0.2500000 )
                  (     0          1          0      )       (  0.2500000 )

 cart.    s(11) = (  0.0000000  0.0000000  1.0000000 )    f =( -0.2500000 )
                  (  0.0000000  1.0000000  0.0000000 )       (  0.2500000 )
                  ( -1.0000000  0.0000000  0.0000000 )       (  0.2500000 )


      isym = 12      90 deg rotation - cart. axis [0,-1,0]       

 cryst.   s(12) = (     0         -1          1      )    f =(  0.2500000 )
                  (     0          0          1      )       (  0.2500000 )
                  (    -1          0          1      )       (  0.2500000 )

 cart.    s(12) = (  0.0000000  0.0000000 -1.0000000 )    f =( -0.2500000 )
                  (  0.0000000  1.0000000  0.0000000 )       (  0.2500000 )
                  (  1.0000000  0.0000000  0.0000000 )       (  0.2500000 )


      isym = 13     180 deg rotation - cart. axis [0,1,1]        

 cryst.   s(13) = (    -1          1          0      )    f =(  0.2500000 )
                  (     0          1          0      )       (  0.2500000 )
                  (     0          1         -1      )       (  0.2500000 )

 cart.    s(13) = ( -1.0000000  0.0000000  0.0000000 )    f =( -0.2500000 )
                  (  0.0000000  0.0000000  1.0000000 )       (  0.2500000 )
                  (  0.0000000  1.0000000  0.0000000 )       (  0.2500000 )


      isym = 14     180 deg rotation - cart. axis [0,1,-1]       

 cryst.   s(14) = (     0          0         -1      )    f =(  0.2500000 )
                  (     0         -1          0      )       (  0.2500000 )
                  (    -1          0          0      )       (  0.2500000 )

 cart.    s(14) = ( -1.0000000  0.0000000  0.0000000 )    f =( -0.2500000 )
                  (  0.0000000  0.0000000 -1.0000000 )       (  0.2500000 )
                  (  0.0000000 -1.0000000  0.0000000 )       (  0.2500000 )


      isym = 15      90 deg rotation - cart. axis [-1,0,0]       

 cryst.   s(15) = (     0          0          1      )    f =(  0.2500000 )
                  (    -1          0          1      )       (  0.2500000 )
                  (     0         -1          1      )       (  0.2500000 )

 cart.    s(15) = (  1.0000000  0.0000000  0.0000000 )    f =( -0.2500000 )
                  (  0.0000000  0.0000000  1.0000000 )       (  0.2500000 )
                  (  0.0000000 -1.0000000  0.0000000 )       (  0.2500000 )


      isym = 16      90 deg rotation - cart. axis [1,0,0]        

 cryst.   s(16) = (     1         -1          0      )    f =(  0.2500000 )
                  (     1          0         -1      )       (  0.2500000 )
                  (     1          0          0      )       (  0.2500000 )

 cart.    s(16) = (  1.0000000  0.0000000  0.0000000 )    f =( -0.2500000 )
                  (  0.0000000  0.0000000 -1.0000000 )       (  0.2500000 )
                  (  0.0000000  1.0000000  0.0000000 )       (  0.2500000 )


      isym = 17     120 deg rotation - cart. axis [-1,-1,-1]     

 cryst.   s(17) = (    -1          0          1      )
                  (    -1          1          0      )
                  (    -1          0          0      )

 cart.    s(17) = (  0.0000000  1.0000000  0.0000000 )
                  (  0.0000000  0.0000000  1.0000000 )
                  (  1.0000000  0.0000000  0.0000000 )


      isym = 18     120 deg rotation - cart. axis [-1,1,1]       

 cryst.   s(18) = (     0          1          0      )
                  (     0          0          1      )
                  (     1          0          0      )

 cart.    s(18) = (  0.0000000 -1.0000000  0.0000000 )
                  (  0.0000000  0.0000000  1.0000000 )
                  ( -1.0000000  0.0000000  0.0000000 )


      isym = 19     120 deg rotation - cart. axis [1,1,-1]       

 cryst.   s(19) = (     1          0         -1      )
                  (     0          0         -1      )
                  (     0          1         -1      )

 cart.    s(19) = (  0.0000000  1.0000000  0.0000000 )
                  (  0.0000000  0.0000000 -1.0000000 )
                  ( -1.0000000  0.0000000  0.0000000 )


      isym = 20     120 deg rotation - cart. axis [1,-1,1]       

 cryst.   s(20) = (     0         -1          0      )
                  (     1         -1          0      )
                  (     0         -1          1      )

 cart.    s(20) = (  0.0000000 -1.0000000  0.0000000 )
                  (  0.0000000  0.0000000 -1.0000000 )
                  (  1.0000000  0.0000000  0.0000000 )


      isym = 21     120 deg rotation - cart. axis [1,1,1]        

 cryst.   s(21) = (     0          0         -1      )
                  (     0          1         -1      )
                  (     1          0         -1      )

 cart.    s(21) = (  0.0000000  0.0000000  1.0000000 )
                  (  1.0000000  0.0000000  0.0000000 )
                  (  0.0000000  1.0000000  0.0000000 )


      isym = 22     120 deg rotation - cart. axis [-1,1,-1]      

 cryst.   s(22) = (    -1          1          0      )
                  (    -1          0          0      )
                  (    -1          0          1      )

 cart.    s(22) = (  0.0000000  0.0000000  1.0000000 )
                  ( -1.0000000  0.0000000  0.0000000 )
                  (  0.0000000 -1.0000000  0.0000000 )


      isym = 23     120 deg rotation - cart. axis [1,-1,-1]      

 cryst.   s(23) = (     0          0          1      )
                  (     1          0          0      )
                  (     0          1          0      )

 cart.    s(23) = (  0.0000000  0.0000000 -1.0000000 )
                  ( -1.0000000  0.0000000  0.0000000 )
                  (  0.0000000  1.0000000  0.0000000 )


      isym = 24     120 deg rotation - cart. axis [-1,-1,1]      

 cryst.   s(24) = (     1         -1          0      )
                  (     0         -1          1      )
                  (     0         -1          0      )

 cart.    s(24) = (  0.0000000  0.0000000 -1.0000000 )
                  (  1.0000000  0.0000000  0.0000000 )
                  (  0.0000000 -1.0000000  0.0000000 )


      isym = 25     inversion                                    

 cryst.   s(25) = (    -1          0          0      )    f =(  0.2500000 )
                  (     0         -1          0      )       (  0.2500000 )
                  (     0          0         -1      )       (  0.2500000 )

 cart.    s(25) = ( -1.0000000  0.0000000  0.0000000 )    f =( -0.2500000 )
                  (  0.0000000 -1.0000000  0.0000000 )       (  0.2500000 )
                  (  0.0000000  0.0000000 -1.0000000 )       (  0.2500000 )


      isym = 26     inv. 180 deg rotation - cart. axis [0,0,1]   

 cryst.   s(26) = (     0         -1          1      )    f =(  0.2500000 )
                  (    -1          0          1      )       (  0.2500000 )
                  (     0          0          1      )       (  0.2500000 )

 cart.    s(26) = (  1.0000000  0.0000000  0.0000000 )    f =( -0.2500000 )
                  (  0.0000000  1.0000000  0.0000000 )       (  0.2500000 )
                  (  0.0000000  0.0000000 -1.0000000 )       (  0.2500000 )


      isym = 27     inv. 180 deg rotation - cart. axis [0,1,0]   

 cryst.   s(27) = (     1          0          0      )    f =(  0.2500000 )
                  (     1          0         -1      )       (  0.2500000 )
                  (     1         -1          0      )       (  0.2500000 )

 cart.    s(27) = (  1.0000000  0.0000000  0.0000000 )    f =( -0.2500000 )
                  (  0.0000000 -1.0000000  0.0000000 )       (  0.2500000 )
                  (  0.0000000  0.0000000  1.0000000 )       (  0.2500000 )


      isym = 28     inv. 180 deg rotation - cart. axis [1,0,0]   

 cryst.   s(28) = (     0          1         -1      )    f =(  0.2500000 )
                  (     0          1          0      )       (  0.2500000 )
                  (    -1          1          0      )       (  0.2500000 )

 cart.    s(28) = ( -1.0000000  0.0000000  0.0000000 )    f =( -0.2500000 )
                  (  0.0000000  1.0000000  0.0000000 )       (  0.2500000 )
                  (  0.0000000  0.0000000  1.0000000 )       (  0.2500000 )


      isym = 29     inv. 180 deg rotation - cart. axis [1,1,0]   

 cryst.   s(29) = (     0          1          0      )
                  (     1          0          0      )
                  (     0          0          1      )

 cart.    s(29) = (  0.0000000 -1.0000000  0.0000000 )
                  ( -1.0000000  0.0000000  0.0000000 )
                  (  0.0000000  0.0000000  1.0000000 )


      isym = 30     inv. 180 deg rotation - cart. axis [1,-1,0]  

 cryst.   s(30) = (     1          0         -1      )
                  (     0          1         -1      )
                  (     0          0         -1      )

 cart.    s(30) = (  0.0000000  1.0000000  0.0000000 )
                  (  1.0000000  0.0000000  0.0000000 )
                  (  0.0000000  0.0000000  1.0000000 )


      isym = 31     inv.  90 deg rotation - cart. axis [0,0,-1]  

 cryst.   s(31) = (     0         -1          0      )
                  (     0         -1          1      )
                  (     1         -1          0      )

 cart.    s(31) = (  0.0000000 -1.0000000  0.0000000 )
                  (  1.0000000  0.0000000  0.0000000 )
                  (  0.0000000  0.0000000 -1.0000000 )


      isym = 32     inv.  90 deg rotation - cart. axis [0,0,1]   

 cryst.   s(32) = (    -1          0          1      )
                  (    -1          0          0      )
                  (    -1          1          0      )

 cart.    s(32) = (  0.0000000  1.0000000  0.0000000 )
                  ( -1.0000000  0.0000000  0.0000000 )
                  (  0.0000000  0.0000000 -1.0000000 )


      isym = 33     inv. 180 deg rotation - cart. axis [1,0,1]   

 cryst.   s(33) = (     1          0          0      )
                  (     0          0          1      )
                  (     0          1          0      )

 cart.    s(33) = (  0.0000000  0.0000000 -1.0000000 )
                  (  0.0000000  1.0000000  0.0000000 )
                  ( -1.0000000  0.0000000  0.0000000 )


      isym = 34     inv. 180 deg rotation - cart. axis [-1,0,1]  

 cryst.   s(34) = (    -1          0          0      )
                  (    -1          1          0      )
                  (    -1          0          1      )

 cart.    s(34) = (  0.0000000  0.0000000  1.0000000 )
                  (  0.0000000  1.0000000  0.0000000 )
                  (  1.0000000  0.0000000  0.0000000 )


      isym = 35     inv.  90 deg rotation - cart. axis [0,1,0]   

 cryst.   s(35) = (     0         -1          1      )
                  (     1         -1          0      )
                  (     0         -1          0      )

 cart.    s(35) = (  0.0000000  0.0000000 -1.0000000 )
                  (  0.0000000 -1.0000000  0.0000000 )
                  (  1.0000000  0.0000000  0.0000000 )


      isym = 36     inv.  90 deg rotation - cart. axis [0,-1,0]  

 cryst.   s(36) = (     0          1         -1      )
                  (     0          0         -1      )
                  (     1          0         -1      )

 cart.    s(36) = (  0.0000000  0.0000000  1.0000000 )
                  (  0.0000000 -1.0000000  0.0000000 )
                  ( -1.0000000  0.0000000  0.0000000 )


      isym = 37     inv. 180 deg rotation - cart. axis [0,1,1]   

 cryst.   s(37) = (     1         -1          0      )
                  (     0         -1          0      )
                  (     0         -1          1      )

 cart.    s(37) = (  1.0000000  0.0000000  0.0000000 )
                  (  0.0000000  0.0000000 -1.0000000 )
                  (  0.0000000 -1.0000000  0.0000000 )


      isym = 38     inv. 180 deg rotation - cart. axis [0,1,-1]  

 cryst.   s(38) = (     0          0          1      )
                  (     0          1          0      )
                  (     1          0          0      )

 cart.    s(38) = (  1.0000000  0.0000000  0.0000000 )
                  (  0.0000000  0.0000000  1.0000000 )
                  (  0.0000000  1.0000000  0.0000000 )


      isym = 39     inv.  90 deg rotation - cart. axis [-1,0,0]  

 cryst.   s(39) = (     0          0         -1      )
                  (     1          0         -1      )
                  (     0          1         -1      )

 cart.    s(39) = ( -1.0000000  0.0000000  0.0000000 )
                  (  0.0000000  0.0000000 -1.0000000 )
                  (  0.0000000  1.0000000  0.0000000 )


      isym = 40     inv.  90 deg rotation - cart. axis [1,0,0]   

 cryst.   s(40) = (    -1          1          0      )
                  (    -1          0          1      )
                  (    -1          0          0      )

 cart.    s(40) = ( -1.0000000  0.0000000  0.0000000 )
                  (  0.0000000  0.0000000  1.0000000 )
                  (  0.0000000 -1.0000000  0.0000000 )


      isym = 41     inv. 120 deg rotation - cart. axis [-1,-1,-1]

 cryst.   s(41) = (     1          0         -1      )    f =(  0.2500000 )
                  (     1         -1          0      )       (  0.2500000 )
                  (     1          0          0      )       (  0.2500000 )

 cart.    s(41) = (  0.0000000 -1.0000000  0.0000000 )    f =( -0.2500000 )
                  (  0.0000000  0.0000000 -1.0000000 )       (  0.2500000 )
                  ( -1.0000000  0.0000000  0.0000000 )       (  0.2500000 )


      isym = 42     inv. 120 deg rotation - cart. axis [-1,1,1]  

 cryst.   s(42) = (     0         -1          0      )    f =(  0.2500000 )
                  (     0          0         -1      )       (  0.2500000 )
                  (    -1          0          0      )       (  0.2500000 )

 cart.    s(42) = (  0.0000000  1.0000000  0.0000000 )    f =( -0.2500000 )
                  (  0.0000000  0.0000000 -1.0000000 )       (  0.2500000 )
                  (  1.0000000  0.0000000  0.0000000 )       (  0.2500000 )


      isym = 43     inv. 120 deg rotation - cart. axis [1,1,-1]  

 cryst.   s(43) = (    -1          0          1      )    f =(  0.2500000 )
                  (     0          0          1      )       (  0.2500000 )
                  (     0         -1          1      )       (  0.2500000 )

 cart.    s(43) = (  0.0000000 -1.0000000  0.0000000 )    f =( -0.2500000 )
                  (  0.0000000  0.0000000  1.0000000 )       (  0.2500000 )
                  (  1.0000000  0.0000000  0.0000000 )       (  0.2500000 )


      isym = 44     inv. 120 deg rotation - cart. axis [1,-1,1]  

 cryst.   s(44) = (     0          1          0      )    f =(  0.2500000 )
                  (    -1          1          0      )       (  0.2500000 )
                  (     0          1         -1      )       (  0.2500000 )

 cart.    s(44) = (  0.0000000  1.0000000  0.0000000 )    f =( -0.2500000 )
                  (  0.0000000  0.0000000  1.0000000 )       (  0.2500000 )
                  ( -1.0000000  0.0000000  0.0000000 )       (  0.2500000 )


      isym = 45     inv. 120 deg rotation - cart. axis [1,1,1]   

 cryst.   s(45) = (     0          0          1      )    f =(  0.2500000 )
                  (     0         -1          1      )       (  0.2500000 )
                  (    -1          0          1      )       (  0.2500000 )

 cart.    s(45) = (  0.0000000  0.0000000 -1.0000000 )    f =( -0.2500000 )
                  ( -1.0000000  0.0000000  0.0000000 )       (  0.2500000 )
                  (  0.0000000 -1.0000000  0.0000000 )       (  0.2500000 )


      isym = 46     inv. 120 deg rotation - cart. axis [-1,1,-1] 

 cryst.   s(46) = (     1         -1          0      )    f =(  0.2500000 )
                  (     1          0          0      )       (  0.2500000 )
                  (     1          0         -1      )       (  0.2500000 )

 cart.    s(46) = (  0.0000000  0.0000000 -1.0000000 )    f =( -0.2500000 )
                  (  1.0000000  0.0000000  0.0000000 )       (  0.2500000 )
                  (  0.0000000  1.0000000  0.0000000 )       (  0.2500000 )


      isym = 47     inv. 120 deg rotation - cart. axis [1,-1,-1] 

 cryst.   s(47) = (     0          0         -1      )    f =(  0.2500000 )
                  (    -1          0          0      )       (  0.2500000 )
                  (     0         -1          0      )       (  0.2500000 )

 cart.    s(47) = (  0.0000000  0.0000000  1.0000000 )    f =( -0.2500000 )
                  (  1.0000000  0.0000000  0.0000000 )       (  0.2500000 )
                  (  0.0000000 -1.0000000  0.0000000 )       (  0.2500000 )


      isym = 48     inv. 120 deg rotation - cart. axis [-1,-1,1] 

 cryst.   s(48) = (    -1          1          0      )    f =(  0.2500000 )
                  (     0          1         -1      )       (  0.2500000 )
                  (     0          1          0      )       (  0.2500000 )

 cart.    s(48) = (  0.0000000  0.0000000  1.0000000 )    f =( -0.2500000 )
                  ( -1.0000000  0.0000000  0.0000000 )       (  0.2500000 )
                  (  0.0000000  1.0000000  0.0000000 )       (  0.2500000 )


     point group O_h (m-3m) 
     there are 10 classes
     the character table:

       E     8C3   3C2   6C4   6C2'  i     8S6   3s_h  6S4   6s_d 
A_1g   1.00  1.00  1.00  1.00  1.00  1.00  1.00  1.00  1.00  1.00
A_2g   1.00  1.00  1.00 -1.00 -1.00  1.00  1.00  1.00 -1.00 -1.00
E_g    2.00 -1.00  2.00  0.00  0.00  2.00 -1.00  2.00  0.00  0.00
T_1g   3.00  0.00 -1.00  1.00 -1.00  3.00  0.00 -1.00  1.00 -1.00
T_2g   3.00  0.00 -1.00 -1.00  1.00  3.00  0.00 -1.00 -1.00  1.00
A_1u   1.00  1.00  1.00  1.00  1.00 -1.00 -1.00 -1.00 -1.00 -1.00
A_2u   1.00  1.00  1.00 -1.00 -1.00 -1.00 -1.00 -1.00  1.00  1.00
E_u    2.00 -1.00  2.00  0.00  0.00 -2.00  1.00 -2.00  0.00  0.00
T_1u   3.00  0.00 -1.00  1.00 -1.00 -3.00  0.00  1.00 -1.00  1.00
T_2u   3.00  0.00 -1.00 -1.00  1.00 -3.00  0.00  1.00  1.00 -1.00

     the symmetry operations in each class and the name of the first element:

     E        1
          identity                                               
     8C3     17   19   20   18   24   21   22   23
          120 deg rotation - cart. axis [-1,-1,-1]               
     3C2      2    4    3
          180 deg rotation - cart. axis [0,0,1]                  
     6C4      7    8   15   16   12   11
           90 deg rotation - cart. axis [0,0,-1]                 
     6C2'     5    6   14   13   10    9
          180 deg rotation - cart. axis [1,1,0]                  
     i       25
          inversion                                              
     8S6     41   43   44   42   48   45   46   47
          inv. 120 deg rotation - cart. axis [-1,-1,-1]          
     3s_h    26   28   27
          inv. 180 deg rotation - cart. axis [0,0,1]             
     6S4     31   32   39   40   36   35
          inv.  90 deg rotation - cart. axis [0,0,-1]            
     6s_d    29   30   38   37   34   33
          inv. 180 deg rotation - cart. axis [1,1,0]             

   Cartesian axes

     site n.     atom                  positions (alat units)
         1           Si  tau(   1) = (   0.0000000   0.0000000   0.0000000  )
         2           Si  tau(   2) = (   0.2500000   0.2500000   0.2500000  )

   Crystallographic axes

     site n.     atom                  positions (cryst. coord.)
         1           Si  tau(   1) = (  0.0000000  0.0000000  0.0000000  )
         2           Si  tau(   2) = ( -0.2500000  0.7500000 -0.2500000  )

     number of k points=    91  Gaussian smearing, width (Ry)=  0.0050
                       cart. coord. in units 2pi/alat
        k(    1) = (   0.5000000   0.5000000   0.5000000), wk =   0.0219780
        k(    2) = (   0.4750000   0.4750000   0.4750000), wk =   0.0219780
        k(    3) = (   0.4500000   0.4500000   0.4500000), wk =   0.0219780
        k(    4) = (   0.4250000   0.4250000   0.4250000), wk =   0.0219780
        k(    5) = (   0.4000000   0.4000000   0.4000000), wk =   0.0219780
        k(    6) = (   0.3750000   0.3750000   0.3750000), wk =   0.0219780
        k(    7) = (   0.3500000   0.3500000   0.3500000), wk =   0.0219780
        k(    8) = (   0.3250000   0.3250000   0.3250000), wk =   0.0219780
        k(    9) = (   0.3000000   0.3000000   0.3000000), wk =   0.0219780
        k(   10) = (   0.2750000   0.2750000   0.2750000), wk =   0.0219780
        k(   11) = (   0.2500000   0.2500000   0.2500000), wk =   0.0219780
        k(   12) = (   0.2250000   0.2250000   0.2250000), wk =   0.0219780
        k(   13) = (   0.2000000   0.2000000   0.2000000), wk =   0.0219780
        k(   14) = (   0.1750000   0.1750000   0.1750000), wk =   0.0219780
        k(   15) = (   0.1500000   0.1500000   0.1500000), wk =   0.0219780
        k(   16) = (   0.1250000   0.1250000   0.1250000), wk =   0.0219780
        k(   17) = (   0.1000000   0.1000000   0.1000000), wk =   0.0219780
        k(   18) = (   0.0750000   0.0750000   0.0750000), wk =   0.0219780
        k(   19) = (   0.0500000   0.0500000   0.0500000), wk =   0.0219780
        k(   20) = (   0.0250000   0.0250000   0.0250000), wk =   0.0219780
        k(   21) = (   0.0000000   0.0000000   0.0000000), wk =   0.0219780
        k(   22) = (   0.0333333   0.0000000   0.0000000), wk =   0.0219780
        k(   23) = (   0.0666667   0.0000000   0.0000000), wk =   0.0219780
        k(   24) = (   0.1000000   0.0000000   0.0000000), wk =   0.0219780
        k(   25) = (   0.1333333   0.0000000   0.0000000), wk =   0.0219780
        k(   26) = (   0.1666667   0.0000000   0.0000000), wk =   0.0219780
        k(   27) = (   0.2000000   0.0000000   0.0000000), wk =   0.0219780
        k(   28) = (   0.2333333   0.0000000   0.0000000), wk =   0.0219780
        k(   29) = (   0.2666667   0.0000000   0.0000000), wk =   0.0219780
        k(   30) = (   0.3000000   0.0000000   0.0000000), wk =   0.0219780
        k(   31) = (   0.3333333   0.0000000   0.0000000), wk =   0.0219780
        k(   32) = (   0.3666667   0.0000000   0.0000000), wk =   0.0219780
        k(   33) = (   0.4000000   0.0000000   0.0000000), wk =   0.0219780
        k(   34) = (   0.4333333   0.0000000   0.0000000), wk =   0.0219780
        k(   35) = (   0.4666667   0.0000000   0.0000000), wk =   0.0219780
        k(   36) = (   0.5000000   0.0000000   0.0000000), wk =   0.0219780
        k(   37) = (   0.5333333   0.0000000   0.0000000), wk =   0.0219780
        k(   38) = (   0.5666667   0.0000000   0.0000000), wk =   0.0219780
        k(   39) = (   0.6000000   0.0000000   0.0000000), wk =   0.0219780
        k(   40) = (   0.6333333   0.0000000   0.0000000), wk =   0.0219780
        k(   41) = (   0.6666667   0.0000000   0.0000000), wk =   0.0219780
        k(   42) = (   0.7000000   0.0000000   0.0000000), wk =   0.0219780
        k(   43) = (   0.7333333   0.0000000   0.0000000), wk =   0.0219780
        k(   44) = (   0.7666667   0.0000000   0.0000000), wk =   0.0219780
        k(   45) = (   0.8000000   0.0000000   0.0000000), wk =   0.0219780
        k(   46) = (   0.8333333   0.0000000   0.0000000), wk =   0.0219780
        k(   47) = (   0.8666667   0.0000000   0.0000000), wk =   0.0219780
        k(   48) = (   0.9000000   0.0000000   0.0000000), wk =   0.0219780
        k(   49) = (   0.9333333   0.0000000   0.0000000), wk =   0.0219780
        k(   50) = (   0.9666667   0.0000000   0.0000000), wk =   0.0219780
        k(   51) = (   1.0000000   0.0000000   0.0000000), wk =   0.0219780
        k(   52) = (   1.0000000   0.0250000   0.0250000), wk =   0.0219780
        k(   53) = (   1.0000000   0.0500000   0.0500000), wk =   0.0219780
        k(   54) = (   1.0000000   0.0750000   0.0750000), wk =   0.0219780
        k(   55) = (   1.0000000   0.1000000   0.1000000), wk =   0.0219780
        k(   56) = (   1.0000000   0.1250000   0.1250000), wk =   0.0219780
        k(   57) = (   1.0000000   0.1500000   0.1500000), wk =   0.0219780
        k(   58) = (   1.0000000   0.1750000   0.1750000), wk =   0.0219780
        k(   59) = (   1.0000000   0.2000000   0.2000000), wk =   0.0219780
        k(   60) = (   1.0000000   0.2250000   0.2250000), wk =   0.0219780
        k(   61) = (   1.0000000   0.2500000   0.2500000), wk =   0.0219780
        k(   62) = (   0.9666667   0.2416667   0.2416667), wk =   0.0219780
        k(   63) = (   0.9333333   0.2333333   0.2333333), wk =   0.0219780
        k(   64) = (   0.9000000   0.2250000   0.2250000), wk =   0.0219780
        k(   65) = (   0.8666667   0.2166667   0.2166667), wk =   0.0219780
        k(   66) = (   0.8333333   0.2083333   0.2083333), wk =   0.0219780
        k(   67) = (   0.8000000   0.2000000   0.2000000), wk =   0.0219780
        k(   68) = (   0.7666667   0.1916667   0.1916667), wk =   0.0219780
        k(   69) = (   0.7333333   0.1833333   0.1833333), wk =   0.0219780
        k(   70) = (   0.7000000   0.1750000   0.1750000), wk =   0.0219780
        k(   71) = (   0.6666667   0.1666667   0.1666667), wk =   0.0219780
        k(   72) = (   0.6333333   0.1583333   0.1583333), wk =   0.0219780
        k(   73) = (   0.6000000   0.1500000   0.1500000), wk =   0.0219780
        k(   74) = (   0.5666667   0.1416667   0.1416667), wk =   0.0219780
        k(   75) = (   0.5333333   0.1333333   0.1333333), wk =   0.0219780
        k(   76) = (   0.5000000   0.1250000   0.1250000), wk =   0.0219780
        k(   77) = (   0.4666667   0.1166667   0.1166667), wk =   0.0219780
        k(   78) = (   0.4333333   0.1083333   0.1083333), wk =   0.0219780
        k(   79) = (   0.4000000   0.1000000   0.1000000), wk =   0.0219780
        k(   80) = (   0.3666667   0.0916667   0.0916667), wk =   0.0219780
        k(   81) = (   0.3333333   0.0833333   0.0833333), wk =   0.0219780
        k(   82) = (   0.3000000   0.0750000   0.0750000), wk =   0.0219780
        k(   83) = (   0.2666667   0.0666667   0.0666667), wk =   0.0219780
        k(   84) = (   0.2333333   0.0583333   0.0583333), wk =   0.0219780
        k(   85) = (   0.2000000   0.0500000   0.0500000), wk =   0.0219780
        k(   86) = (   0.1666667   0.0416667   0.0416667), wk =   0.0219780
        k(   87) = (   0.1333333   0.0333333   0.0333333), wk =   0.0219780
        k(   88) = (   0.1000000   0.0250000   0.0250000), wk =   0.0219780
        k(   89) = (   0.0666667   0.0166667   0.0166667), wk =   0.0219780
        k(   90) = (   0.0333333   0.0083333   0.0083333), wk =   0.0219780
        k(   91) = (   0.0000000   0.0000000   0.0000000), wk =   0.0219780

                       cryst. coord.
        k(    1) = (   0.0000000   0.5000000   0.0000000), wk =   0.0219780
        k(    2) = (   0.0000000   0.4750000   0.0000000), wk =   0.0219780
        k(    3) = (   0.0000000   0.4500000   0.0000000), wk =   0.0219780
        k(    4) = (   0.0000000   0.4250000   0.0000000), wk =   0.0219780
        k(    5) = (   0.0000000   0.4000000   0.0000000), wk =   0.0219780
        k(    6) = (   0.0000000   0.3750000   0.0000000), wk =   0.0219780
        k(    7) = (   0.0000000   0.3500000   0.0000000), wk =   0.0219780
        k(    8) = (   0.0000000   0.3250000   0.0000000), wk =   0.0219780
        k(    9) = (   0.0000000   0.3000000   0.0000000), wk =   0.0219780
        k(   10) = (   0.0000000   0.2750000   0.0000000), wk =   0.0219780
        k(   11) = (   0.0000000   0.2500000   0.0000000), wk =   0.0219780
        k(   12) = (   0.0000000   0.2250000   0.0000000), wk =   0.0219780
        k(   13) = (   0.0000000   0.2000000   0.0000000), wk =   0.0219780
        k(   14) = (   0.0000000   0.1750000   0.0000000), wk =   0.0219780
        k(   15) = (   0.0000000   0.1500000   0.0000000), wk =   0.0219780
        k(   16) = (   0.0000000   0.1250000   0.0000000), wk =   0.0219780
        k(   17) = (   0.0000000   0.1000000   0.0000000), wk =   0.0219780
        k(   18) = (   0.0000000   0.0750000   0.0000000), wk =   0.0219780
        k(   19) = (   0.0000000   0.0500000   0.0000000), wk =   0.0219780
        k(   20) = (   0.0000000   0.0250000   0.0000000), wk =   0.0219780
        k(   21) = (   0.0000000   0.0000000   0.0000000), wk =   0.0219780
        k(   22) = (  -0.0166667   0.0000000  -0.0166667), wk =   0.0219780
        k(   23) = (  -0.0333333   0.0000000  -0.0333333), wk =   0.0219780
        k(   24) = (  -0.0500000   0.0000000  -0.0500000), wk =   0.0219780
        k(   25) = (  -0.0666667   0.0000000  -0.0666667), wk =   0.0219780
        k(   26) = (  -0.0833333   0.0000000  -0.0833333), wk =   0.0219780
        k(   27) = (  -0.1000000   0.0000000  -0.1000000), wk =   0.0219780
        k(   28) = (  -0.1166667   0.0000000  -0.1166667), wk =   0.0219780
        k(   29) = (  -0.1333333   0.0000000  -0.1333333), wk =   0.0219780
        k(   30) = (  -0.1500000   0.0000000  -0.1500000), wk =   0.0219780
        k(   31) = (  -0.1666667   0.0000000  -0.1666667), wk =   0.0219780
        k(   32) = (  -0.1833333   0.0000000  -0.1833333), wk =   0.0219780
        k(   33) = (  -0.2000000   0.0000000  -0.2000000), wk =   0.0219780
        k(   34) = (  -0.2166667   0.0000000  -0.2166667), wk =   0.0219780
        k(   35) = (  -0.2333333   0.0000000  -0.2333333), wk =   0.0219780
        k(   36) = (  -0.2500000   0.0000000  -0.2500000), wk =   0.0219780
        k(   37) = (  -0.2666667   0.0000000  -0.2666667), wk =   0.0219780
        k(   38) = (  -0.2833333   0.0000000  -0.2833333), wk =   0.0219780
        k(   39) = (  -0.3000000   0.0000000  -0.3000000), wk =   0.0219780
        k(   40) = (  -0.3166667   0.0000000  -0.3166667), wk =   0.0219780
        k(   41) = (  -0.3333333   0.0000000  -0.3333333), wk =   0.0219780
        k(   42) = (  -0.3500000   0.0000000  -0.3500000), wk =   0.0219780
        k(   43) = (  -0.3666667   0.0000000  -0.3666667), wk =   0.0219780
        k(   44) = (  -0.3833333   0.0000000  -0.3833333), wk =   0.0219780
        k(   45) = (  -0.4000000   0.0000000  -0.4000000), wk =   0.0219780
        k(   46) = (  -0.4166667   0.0000000  -0.4166667), wk =   0.0219780
        k(   47) = (  -0.4333333   0.0000000  -0.4333333), wk =   0.0219780
        k(   48) = (  -0.4500000   0.0000000  -0.4500000), wk =   0.0219780
        k(   49) = (  -0.4666667   0.0000000  -0.4666667), wk =   0.0219780
        k(   50) = (  -0.4833333   0.0000000  -0.4833333), wk =   0.0219780
        k(   51) = (  -0.5000000   0.0000000  -0.5000000), wk =   0.0219780
        k(   52) = (  -0.4875000   0.0250000  -0.4875000), wk =   0.0219780
        k(   53) = (  -0.4750000   0.0500000  -0.4750000), wk =   0.0219780
        k(   54) = (  -0.4625000   0.0750000  -0.4625000), wk =   0.0219780
        k(   55) = (  -0.4500000   0.1000000  -0.4500000), wk =   0.0219780
        k(   56) = (  -0.4375000   0.1250000  -0.4375000), wk =   0.0219780
        k(   57) = (  -0.4250000   0.1500000  -0.4250000), wk =   0.0219780
        k(   58) = (  -0.4125000   0.1750000  -0.4125000), wk =   0.0219780
        k(   59) = (  -0.4000000   0.2000000  -0.4000000), wk =   0.0219780
        k(   60) = (  -0.3875000   0.2250000  -0.3875000), wk =   0.0219780
        k(   61) = (  -0.3750000   0.2500000  -0.3750000), wk =   0.0219780
        k(   62) = (  -0.3625000   0.2416667  -0.3625000), wk =   0.0219780
        k(   63) = (  -0.3500000   0.2333333  -0.3500000), wk =   0.0219780
        k(   64) = (  -0.3375000   0.2250000  -0.3375000), wk =   0.0219780
        k(   65) = (  -0.3250000   0.2166667  -0.3250000), wk =   0.0219780
        k(   66) = (  -0.3125000   0.2083333  -0.3125000), wk =   0.0219780
        k(   67) = (  -0.3000000   0.2000000  -0.3000000), wk =   0.0219780
        k(   68) = (  -0.2875000   0.1916667  -0.2875000), wk =   0.0219780
        k(   69) = (  -0.2750000   0.1833333  -0.2750000), wk =   0.0219780
        k(   70) = (  -0.2625000   0.1750000  -0.2625000), wk =   0.0219780
        k(   71) = (  -0.2500000   0.1666667  -0.2500000), wk =   0.0219780
        k(   72) = (  -0.2375000   0.1583333  -0.2375000), wk =   0.0219780
        k(   73) = (  -0.2250000   0.1500000  -0.2250000), wk =   0.0219780
        k(   74) = (  -0.2125000   0.1416667  -0.2125000), wk =   0.0219780
        k(   75) = (  -0.2000000   0.1333333  -0.2000000), wk =   0.0219780
        k(   76) = (  -0.1875000   0.1250000  -0.1875000), wk =   0.0219780
        k(   77) = (  -0.1750000   0.1166667  -0.1750000), wk =   0.0219780
        k(   78) = (  -0.1625000   0.1083333  -0.1625000), wk =   0.0219780
        k(   79) = (  -0.1500000   0.1000000  -0.1500000), wk =   0.0219780
        k(   80) = (  -0.1375000   0.0916667  -0.1375000), wk =   0.0219780
        k(   81) = (  -0.1250000   0.0833333  -0.1250000), wk =   0.0219780
        k(   82) = (  -0.1125000   0.0750000  -0.1125000), wk =   0.0219780
        k(   83) = (  -0.1000000   0.0666667  -0.1000000), wk =   0.0219780
        k(   84) = (  -0.0875000   0.0583333  -0.0875000), wk =   0.0219780
        k(   85) = (  -0.0750000   0.0500000  -0.0750000), wk =   0.0219780
        k(   86) = (  -0.0625000   0.0416667  -0.0625000), wk =   0.0219780
        k(   87) = (  -0.0500000   0.0333333  -0.0500000), wk =   0.0219780
        k(   88) = (  -0.0375000   0.0250000  -0.0375000), wk =   0.0219780
        k(   89) = (  -0.0250000   0.0166667  -0.0250000), wk =   0.0219780
        k(   90) = (  -0.0125000   0.0083333  -0.0125000), wk =   0.0219780
        k(   91) = (   0.0000000   0.0000000   0.0000000), wk =   0.0219780

     Dense  grid:    37917 G-vectors     FFT dimensions: (  48,  48,  48)

     Smooth grid:    13371 G-vectors     FFT dimensions: (  36,  36,  36)

     Dynamical RAM for                 wfc:       0.20 MB

     Dynamical RAM for     wfc (w. buffer):       0.20 MB

     Dynamical RAM for           str. fact:       0.58 MB

     Dynamical RAM for           local pot:       0.00 MB

     Dynamical RAM for          nlocal pot:       0.92 MB

     Dynamical RAM for                qrad:       1.61 MB

     Dynamical RAM for          rho,v,vnew:       4.27 MB

     Dynamical RAM for           G-vectors:       2.27 MB

     Dynamical RAM for          h,s,v(r/c):       0.01 MB

     Dynamical RAM for          <psi|beta>:       0.00 MB

     Dynamical RAM for                 psi:       0.41 MB

     Dynamical RAM for                hpsi:       0.41 MB

     Dynamical RAM for                spsi:       0.41 MB

     Dynamical RAM for      wfcinit/wfcrot:       0.41 MB

     Dynamical RAM for           addusdens:     108.77 MB

     Estimated static dynamical RAM per process >      15.22 MB

     Estimated max dynamical RAM per process >     123.99 MB

     The potential is recalculated from file :
     ././silicon.save/charge-density

     Starting wfcs are    8 randomized atomic wfcs
     Checking if some PAW data can be deallocated... 

     Band Structure Calculation
     Davidson diagonalization with overlap

     Computing kpt #:     1  of    91
     total cpu time spent up to now is        0.9 secs

     Computing kpt #:     2  of    91
     total cpu time spent up to now is        1.1 secs

     Computing kpt #:     3  of    91
     total cpu time spent up to now is        1.2 secs

     Computing kpt #:     4  of    91
     total cpu time spent up to now is        1.4 secs

     Computing kpt #:     5  of    91
     total cpu time spent up to now is        1.5 secs

     Computing kpt #:     6  of    91
     total cpu time spent up to now is        1.7 secs

     Computing kpt #:     7  of    91
     total cpu time spent up to now is        1.9 secs

     Computing kpt #:     8  of    91
     total cpu time spent up to now is        2.1 secs

     Computing kpt #:     9  of    91
     total cpu time spent up to now is        2.2 secs

     Computing kpt #:    10  of    91
     total cpu time spent up to now is        2.4 secs

     Computing kpt #:    11  of    91
     total cpu time spent up to now is        2.6 secs

     Computing kpt #:    12  of    91
     total cpu time spent up to now is        2.7 secs

     Computing kpt #:    13  of    91
     total cpu time spent up to now is        2.9 secs

     Computing kpt #:    14  of    91
     total cpu time spent up to now is        3.0 secs

     Computing kpt #:    15  of    91
     total cpu time spent up to now is        3.1 secs

     Computing kpt #:    16  of    91
     total cpu time spent up to now is        3.3 secs

     Computing kpt #:    17  of    91
     total cpu time spent up to now is        3.4 secs

     Computing kpt #:    18  of    91
     total cpu time spent up to now is        3.5 secs

     Computing kpt #:    19  of    91
     total cpu time spent up to now is        3.7 secs

     Computing kpt #:    20  of    91
     total cpu time spent up to now is        3.8 secs

     Computing kpt #:    21  of    91
     total cpu time spent up to now is        3.9 secs

     Computing kpt #:    22  of    91
     total cpu time spent up to now is        4.0 secs

     Computing kpt #:    23  of    91
     total cpu time spent up to now is        4.1 secs

     Computing kpt #:    24  of    91
     total cpu time spent up to now is        4.3 secs

     Computing kpt #:    25  of    91
     total cpu time spent up to now is        4.4 secs

     Computing kpt #:    26  of    91
     total cpu time spent up to now is        4.5 secs

     Computing kpt #:    27  of    91
     total cpu time spent up to now is        4.7 secs

     Computing kpt #:    28  of    91
     total cpu time spent up to now is        4.8 secs

     Computing kpt #:    29  of    91
     total cpu time spent up to now is        5.0 secs

     Computing kpt #:    30  of    91
     total cpu time spent up to now is        5.1 secs

     Computing kpt #:    31  of    91
     total cpu time spent up to now is        5.3 secs

     Computing kpt #:    32  of    91
     total cpu time spent up to now is        5.4 secs

     Computing kpt #:    33  of    91
     total cpu time spent up to now is        5.6 secs

     Computing kpt #:    34  of    91
     total cpu time spent up to now is        5.7 secs

     Computing kpt #:    35  of    91
     total cpu time spent up to now is        5.9 secs

     Computing kpt #:    36  of    91
     total cpu time spent up to now is        6.0 secs

     Computing kpt #:    37  of    91
     total cpu time spent up to now is        6.2 secs

     Computing kpt #:    38  of    91
     total cpu time spent up to now is        6.3 secs

     Computing kpt #:    39  of    91
     total cpu time spent up to now is        6.4 secs

     Computing kpt #:    40  of    91
     total cpu time spent up to now is        6.6 secs

     Computing kpt #:    41  of    91
     total cpu time spent up to now is        6.7 secs

     Computing kpt #:    42  of    91
     total cpu time spent up to now is        6.8 secs

     Computing kpt #:    43  of    91
     total cpu time spent up to now is        7.0 secs

     Computing kpt #:    44  of    91
     total cpu time spent up to now is        7.1 secs

     Computing kpt #:    45  of    91
     total cpu time spent up to now is        7.3 secs

     Computing kpt #:    46  of    91
     total cpu time spent up to now is        7.4 secs

     Computing kpt #:    47  of    91
     total cpu time spent up to now is        7.6 secs

     Computing kpt #:    48  of    91
     total cpu time spent up to now is        7.7 secs

     Computing kpt #:    49  of    91
     total cpu time spent up to now is        7.9 secs

     Computing kpt #:    50  of    91
     total cpu time spent up to now is        8.1 secs

     Computing kpt #:    51  of    91
     total cpu time spent up to now is        8.2 secs

     Computing kpt #:    52  of    91
     total cpu time spent up to now is        8.4 secs

     Computing kpt #:    53  of    91
     total cpu time spent up to now is        8.6 secs

     Computing kpt #:    54  of    91
     total cpu time spent up to now is        8.7 secs

     Computing kpt #:    55  of    91
     total cpu time spent up to now is        8.9 secs

     Computing kpt #:    56  of    91
     total cpu time spent up to now is        9.1 secs

     Computing kpt #:    57  of    91
     total cpu time spent up to now is        9.2 secs

     Computing kpt #:    58  of    91
     total cpu time spent up to now is        9.4 secs

     Computing kpt #:    59  of    91
     total cpu time spent up to now is        9.6 secs

     Computing kpt #:    60  of    91
     total cpu time spent up to now is        9.9 secs

     Computing kpt #:    61  of    91
     total cpu time spent up to now is       10.1 secs

     Computing kpt #:    62  of    91
     total cpu time spent up to now is       10.2 secs

     Computing kpt #:    63  of    91
     total cpu time spent up to now is       10.4 secs

     Computing kpt #:    64  of    91
     total cpu time spent up to now is       10.6 secs

     Computing kpt #:    65  of    91
     total cpu time spent up to now is       10.8 secs

     Computing kpt #:    66  of    91
     total cpu time spent up to now is       10.9 secs

     Computing kpt #:    67  of    91
     total cpu time spent up to now is       11.0 secs

     Computing kpt #:    68  of    91
     total cpu time spent up to now is       11.2 secs

     Computing kpt #:    69  of    91
     total cpu time spent up to now is       11.3 secs

     Computing kpt #:    70  of    91
     total cpu time spent up to now is       11.4 secs

     Computing kpt #:    71  of    91
     total cpu time spent up to now is       11.6 secs

     Computing kpt #:    72  of    91
     total cpu time spent up to now is       11.7 secs

     Computing kpt #:    73  of    91
     total cpu time spent up to now is       11.8 secs

     Computing kpt #:    74  of    91
     total cpu time spent up to now is       12.0 secs

     Computing kpt #:    75  of    91
     total cpu time spent up to now is       12.1 secs

     Computing kpt #:    76  of    91
     total cpu time spent up to now is       12.3 secs

     Computing kpt #:    77  of    91
     total cpu time spent up to now is       12.5 secs

     Computing kpt #:    78  of    91
     total cpu time spent up to now is       12.6 secs

     Computing kpt #:    79  of    91
     total cpu time spent up to now is       12.8 secs

     Computing kpt #:    80  of    91
     total cpu time spent up to now is       13.0 secs

     Computing kpt #:    81  of    91
     total cpu time spent up to now is       13.2 secs

     Computing kpt #:    82  of    91
     total cpu time spent up to now is       13.4 secs

     Computing kpt #:    83  of    91
     total cpu time spent up to now is       13.6 secs

     Computing kpt #:    84  of    91
     total cpu time spent up to now is       13.8 secs

     Computing kpt #:    85  of    91
     total cpu time spent up to now is       13.9 secs

     Computing kpt #:    86  of    91
     total cpu time spent up to now is       14.1 secs

     Computing kpt #:    87  of    91
     total cpu time spent up to now is       14.3 secs

     Computing kpt #:    88  of    91
     total cpu time spent up to now is       14.4 secs

     Computing kpt #:    89  of    91
     total cpu time spent up to now is       14.5 secs

     Computing kpt #:    90  of    91
     total cpu time spent up to now is       14.7 secs

     Computing kpt #:    91  of    91
     total cpu time spent up to now is       14.8 secs

     ethr =  1.25E-08,  avg # of iterations = 23.2

     total cpu time spent up to now is       14.8 secs

     End of band structure calculation

          k = 0.5000 0.5000 0.5000 (  1676 PWs)   bands (ev):

    -3.6347  -0.9632   4.6820   4.6820   7.2666   9.2051   9.2051  13.5400

     occupation numbers 
     1.0000   1.0000   1.0000   1.0000   0.0000   0.0000   0.0000   0.0000

          k = 0.4750 0.4750 0.4750 (  1685 PWs)   bands (ev):

    -3.6681  -0.9147   4.6864   4.6864   7.2717   9.2098   9.2098  13.5472

     occupation numbers 
     1.0000   1.0000   1.0000   1.0000   0.0000   0.0000   0.0000   0.0000

          k = 0.4500 0.4500 0.4500 (  1679 PWs)   bands (ev):

    -3.7615  -0.7761   4.6997   4.6997   7.2872   9.2236   9.2236  13.5680

     occupation numbers 
     1.0000   1.0000   1.0000   1.0000   0.0000   0.0000   0.0000   0.0000

          k = 0.4250 0.4250 0.4250 (  1673 PWs)   bands (ev):

    -3.8989  -0.5633   4.7218   4.7218   7.3130   9.2453   9.2453  13.5994

     occupation numbers 
     1.0000   1.0000   1.0000   1.0000   0.0000   0.0000   0.0000   0.0000

          k = 0.4000 0.4000 0.4000 (  1667 PWs)   bands (ev):

    -4.0637  -0.2934   4.7526   4.7526   7.3489   9.2729   9.2729  13.6350

     occupation numbers 
     1.0000   1.0000   1.0000   1.0000   0.0000   0.0000   0.0000   0.0000

          k = 0.3750 0.3750 0.3750 (  1667 PWs)   bands (ev):

    -4.2425   0.0201   4.7921   4.7921   7.3947   9.3036   9.3036  13.6598

     occupation numbers 
     1.0000   1.0000   1.0000   1.0000   0.0000   0.0000   0.0000   0.0000

          k = 0.3500 0.3500 0.3500 (  1667 PWs)   bands (ev):

    -4.4257   0.3673   4.8402   4.8402   7.4502   9.3333   9.3333  13.6403

     occupation numbers 
     1.0000   1.0000   1.0000   1.0000   0.0000   0.0000   0.0000   0.0000

          k = 0.3250 0.3250 0.3250 (  1664 PWs)   bands (ev):

    -4.6072   0.7415   4.8967   4.8967   7.5150   9.3568   9.3568  13.5176

     occupation numbers 
     1.0000   1.0000   1.0000   1.0000   0.0000   0.0000   0.0000   0.0000

          k = 0.3000 0.3000 0.3000 (  1652 PWs)   bands (ev):

    -4.7826   1.1379   4.9613   4.9613   7.5887   9.3681   9.3681  13.2567

     occupation numbers 
     1.0000   1.0000   1.0000   1.0000   0.0000   0.0000   0.0000   0.0000

          k = 0.2750 0.2750 0.2750 (  1655 PWs)   bands (ev):

    -4.9492   1.5527   5.0336   5.0336   7.6704   9.3605   9.3605  12.8973

     occupation numbers 
     1.0000   1.0000   1.0000   1.0000   0.0000   0.0000   0.0000   0.0000

          k = 0.2500 0.2500 0.2500 (  1657 PWs)   bands (ev):

    -5.1049   1.9831   5.1129   5.1129   7.7593   9.3283   9.3283  12.4889

     occupation numbers 
     1.0000   1.0000   1.0000   1.0000   0.0000   0.0000   0.0000   0.0000

          k = 0.2250 0.2250 0.2250 (  1657 PWs)   bands (ev):

    -5.2482   2.4262   5.1985   5.1985   7.8540   9.2680   9.2680  12.0571

     occupation numbers 
     1.0000   1.0000   1.0000   1.0000   0.0000   0.0000   0.0000   0.0000

          k = 0.2000 0.2000 0.2000 (  1669 PWs)   bands (ev):

    -5.3783   2.8792   5.2891   5.2891   7.9528   9.1801   9.1801  11.6132

     occupation numbers 
     1.0000   1.0000   1.0000   1.0000   0.0000   0.0000   0.0000   0.0000

          k = 0.1750 0.1750 0.1750 (  1678 PWs)   bands (ev):

    -5.4943   3.3389   5.3832   5.3832   8.0535   9.0689   9.0689  11.1632

     occupation numbers 
     1.0000   1.0000   1.0000   1.0000   0.0000   0.0000   0.0000   0.0000

          k = 0.1500 0.1500 0.1500 (  1687 PWs)   bands (ev):

    -5.5957   3.8012   5.4784   5.4784   8.1530   8.9423   8.9423  10.7117

     occupation numbers 
     1.0000   1.0000   1.0000   1.0000   0.0000   0.0000   0.0000   0.0000

          k = 0.1250 0.1250 0.1250 (  1684 PWs)   bands (ev):

    -5.6821   4.2602   5.5718   5.5718   8.2474   8.8097   8.8097  10.2646

     occupation numbers 
     1.0000   1.0000   1.0000   1.0000   0.0000   0.0000   0.0000   0.0000

          k = 0.1000 0.1000 0.1000 (  1684 PWs)   bands (ev):

    -5.7532   4.7068   5.6595   5.6595   8.3310   8.6813   8.6813   9.8318

     occupation numbers 
     1.0000   1.0000   1.0000   1.0000   0.0000   0.0000   0.0000   0.0000

          k = 0.0750 0.0750 0.0750 (  1669 PWs)   bands (ev):

    -5.8087   5.1257   5.7368   5.7368   8.3961   8.5673   8.5673   9.4313

     occupation numbers 
     1.0000   1.0000   1.0000   1.0000   0.0000   0.0000   0.0000   0.0000

          k = 0.0500 0.0500 0.0500 (  1672 PWs)   bands (ev):

    -5.8484   5.4897   5.7979   5.7979   8.4300   8.4771   8.4771   9.0977

     occupation numbers 
     1.0000   1.0000   1.0000   1.0000   0.0000   0.0000   0.0000   0.0000

          k = 0.0250 0.0250 0.0250 (  1678 PWs)   bands (ev):

    -5.8723   5.7523   5.8374   5.8374   8.4191   8.4191   8.4196   8.8863

     occupation numbers 
     1.0000   1.0000   1.0000   1.0000   0.0000   0.0000   0.0000   0.0000

          k = 0.0000 0.0000 0.0000 (  1687 PWs)   bands (ev):

    -5.8802   5.8512   5.8512   5.8512   8.3990   8.3990   8.3990   8.8220

     occupation numbers 
     1.0000   1.0000   1.0000   1.0000   0.0000   0.0000   0.0000   0.0000

          k = 0.0333 0.0000 0.0000 (  1679 PWs)   bands (ev):

    -5.8755   5.8153   5.8310   5.8310   8.3873   8.4250   8.4250   8.8572

     occupation numbers 
     1.0000   1.0000   1.0000   1.0000   0.0000   0.0000   0.0000   0.0000

          k = 0.0667 0.0000 0.0000 (  1667 PWs)   bands (ev):

    -5.8614   5.7126   5.7729   5.7729   8.3527   8.5006   8.5006   8.9574

     occupation numbers 
     1.0000   1.0000   1.0000   1.0000   0.0000   0.0000   0.0000   0.0000

          k = 0.1000 0.0000 0.0000 (  1667 PWs)   bands (ev):

    -5.8378   5.5550   5.6831   5.6831   8.2970   8.6195   8.6195   9.1088

     occupation numbers 
     1.0000   1.0000   1.0000   1.0000   0.0000   0.0000   0.0000   0.0000

          k = 0.1333 0.0000 0.0000 (  1671 PWs)   bands (ev):

    -5.8047   5.3564   5.5693   5.5693   8.2230   8.7740   8.7740   9.2945

     occupation numbers 
     1.0000   1.0000   1.0000   1.0000   0.0000   0.0000   0.0000   0.0000

          k = 0.1667 0.0000 0.0000 (  1679 PWs)   bands (ev):

    -5.7623   5.1285   5.4387   5.4387   8.1337   8.9566   8.9566   9.4969

     occupation numbers 
     1.0000   1.0000   1.0000   1.0000   0.0000   0.0000   0.0000   0.0000

          k = 0.2000 0.0000 0.0000 (  1695 PWs)   bands (ev):

    -5.7105   4.8801   5.2973   5.2973   8.0325   9.1615   9.1615   9.6976

     occupation numbers 
     1.0000   1.0000   1.0000   1.0000   0.0000   0.0000   0.0000   0.0000

          k = 0.2333 0.0000 0.0000 (  1691 PWs)   bands (ev):

    -5.6494   4.6174   5.1499   5.1499   7.9226   9.3837   9.3837   9.8742

     occupation numbers 
     1.0000   1.0000   1.0000   1.0000   0.0000   0.0000   0.0000   0.0000

          k = 0.2667 0.0000 0.0000 (  1683 PWs)   bands (ev):

    -5.5789   4.3448   4.9997   4.9997   7.8069   9.6197   9.6197   9.9988

     occupation numbers 
     1.0000   1.0000   1.0000   1.0000   0.0000   0.0000   0.0000   0.0000

          k = 0.3000 0.0000 0.0000 (  1663 PWs)   bands (ev):

    -5.4992   4.0652   4.8494   4.8494   7.6880   9.8668   9.8668  10.0426

     occupation numbers 
     1.0000   1.0000   1.0000   1.0000   0.0000   0.0000   0.0000   0.0000

          k = 0.3333 0.0000 0.0000 (  1672 PWs)   bands (ev):

    -5.4103   3.7807   4.7008   4.7008   7.5683   9.9924  10.1231  10.1231

     occupation numbers 
     1.0000   1.0000   1.0000   1.0000   0.0000   0.0000   0.0000   0.0000

          k = 0.3667 0.0000 0.0000 (  1672 PWs)   bands (ev):

    -5.3123   3.4928   4.5554   4.5554   7.4495   9.8607  10.3869  10.3869

     occupation numbers 
     1.0000   1.0000   1.0000   1.0000   0.0000   0.0000   0.0000   0.0000

          k = 0.4000 0.0000 0.0000 (  1664 PWs)   bands (ev):

    -5.2052   3.2025   4.4143   4.4143   7.3334   9.6739  10.6570  10.6570

     occupation numbers 
     1.0000   1.0000   1.0000   1.0000   0.0000   0.0000   0.0000   0.0000

          k = 0.4333 0.0000 0.0000 (  1664 PWs)   bands (ev):

    -5.0891   2.9106   4.2783   4.2783   7.2213   9.4559  10.9325  10.9325

     occupation numbers 
     1.0000   1.0000   1.0000   1.0000   0.0000   0.0000   0.0000   0.0000

          k = 0.4667 0.0000 0.0000 (  1680 PWs)   bands (ev):

    -4.9640   2.6178   4.1480   4.1480   7.1143   9.2231  11.2127  11.2127

     occupation numbers 
     1.0000   1.0000   1.0000   1.0000   0.0000   0.0000   0.0000   0.0000

          k = 0.5000 0.0000 0.0000 (  1700 PWs)   bands (ev):

    -4.8302   2.3245   4.0240   4.0240   7.0135   8.9857  11.4969  11.4969

     occupation numbers 
     1.0000   1.0000   1.0000   1.0000   0.0000   0.0000   0.0000   0.0000

          k = 0.5333 0.0000 0.0000 (  1680 PWs)   bands (ev):

    -4.6876   2.0312   3.9067   3.9067   6.9196   8.7501  11.7847  11.7847

     occupation numbers 
     1.0000   1.0000   1.0000   1.0000   0.0000   0.0000   0.0000   0.0000

          k = 0.5667 0.0000 0.0000 (  1680 PWs)   bands (ev):

    -4.5364   1.7383   3.7965   3.7965   6.8334   8.5205  12.0756  12.0756

     occupation numbers 
     1.0000   1.0000   1.0000   1.0000   0.0000   0.0000   0.0000   0.0000

          k = 0.6000 0.0000 0.0000 (  1676 PWs)   bands (ev):

    -4.3767   1.4462   3.6936   3.6936   6.7556   8.2996  12.3694  12.3694

     occupation numbers 
     1.0000   1.0000   1.0000   1.0000   0.0000   0.0000   0.0000   0.0000

          k = 0.6333 0.0000 0.0000 (  1676 PWs)   bands (ev):

    -4.2087   1.1552   3.5982   3.5982   6.6867   8.0891  12.6658  12.6658

     occupation numbers 
     1.0000   1.0000   1.0000   1.0000   0.0000   0.0000   0.0000   0.0000

          k = 0.6667 0.0000 0.0000 (  1680 PWs)   bands (ev):

    -4.0324   0.8657   3.5107   3.5107   6.6271   7.8903  12.9646  12.9646

     occupation numbers 
     1.0000   1.0000   1.0000   1.0000   0.0000   0.0000   0.0000   0.0000

          k = 0.7000 0.0000 0.0000 (  1672 PWs)   bands (ev):

    -3.8481   0.5782   3.4310   3.4310   6.5773   7.7039  13.2656  13.2656

     occupation numbers 
     1.0000   1.0000   1.0000   1.0000   0.0000   0.0000   0.0000   0.0000

          k = 0.7333 0.0000 0.0000 (  1672 PWs)   bands (ev):

    -3.6559   0.2929   3.3595   3.3595   6.5377   7.5305  13.5683  13.5683

     occupation numbers 
     1.0000   1.0000   1.0000   1.0000   0.0000   0.0000   0.0000   0.0000

          k = 0.7667 0.0000 0.0000 (  1672 PWs)   bands (ev):

    -3.4560   0.0104   3.2961   3.2961   6.5087   7.3705  13.8724  13.8724

     occupation numbers 
     1.0000   1.0000   1.0000   1.0000   0.0000   0.0000   0.0000   0.0000

          k = 0.8000 0.0000 0.0000 (  1668 PWs)   bands (ev):

    -3.2486  -0.2691   3.2409   3.2409   6.4907   7.2239  14.1772  14.1772

     occupation numbers 
     1.0000   1.0000   1.0000   1.0000   0.0000   0.0000   0.0000   0.0000

          k = 0.8333 0.0000 0.0000 (  1668 PWs)   bands (ev):

    -3.0339  -0.5451   3.1942   3.1942   6.4838   7.0910  14.4813  14.4813

     occupation numbers 
     1.0000   1.0000   1.0000   1.0000   0.0000   0.0000   0.0000   0.0000

          k = 0.8667 0.0000 0.0000 (  1668 PWs)   bands (ev):

    -2.8121  -0.8173   3.1558   3.1558   6.4884   6.9716  14.7823  14.7823

     occupation numbers 
     1.0000   1.0000   1.0000   1.0000   0.0000   0.0000   0.0000   0.0000

          k = 0.9000 0.0000 0.0000 (  1676 PWs)   bands (ev):

    -2.5836  -1.0852   3.1259   3.1259   6.5049   6.8658  15.0753  15.0753

     occupation numbers 
     1.0000   1.0000   1.0000   1.0000   0.0000   0.0000   0.0000   0.0000

          k = 0.9333 0.0000 0.0000 (  1664 PWs)   bands (ev):

    -2.3485  -1.3485   3.1046   3.1046   6.5334   6.7733  15.3481  15.3481

     occupation numbers 
     1.0000   1.0000   1.0000   1.0000   0.0000   0.0000   0.0000   0.0000

          k = 0.9667 0.0000 0.0000 (  1664 PWs)   bands (ev):

    -2.1071  -1.6068   3.0918   3.0918   6.5743   6.6940  15.5691  15.5691

     occupation numbers 
     1.0000   1.0000   1.0000   1.0000   0.0000   0.0000   0.0000   0.0000

          k = 1.0000 0.0000 0.0000 (  1660 PWs)   bands (ev):

    -1.8598  -1.8598   3.0875   3.0875   6.6277   6.6277  15.6635  15.6635

     occupation numbers 
     1.0000   1.0000   1.0000   1.0000   0.0000   0.0000   0.0000   0.0000

          k = 1.0000 0.0250 0.0250 (  1666 PWs)   bands (ev):

    -1.8622  -1.8540   3.0522   3.0917   6.6326   6.6810  15.6087  15.6310

     occupation numbers 
     1.0000   1.0000   1.0000   1.0000   0.0000   0.0000   0.0000   0.0000

          k = 1.0000 0.0500 0.0500 (  1666 PWs)   bands (ev):

    -1.8698  -1.8366   2.9531   3.1045   6.6473   6.8343  15.4576  15.5381

     occupation numbers 
     1.0000   1.0000   1.0000   1.0000   0.0000   0.0000   0.0000   0.0000

          k = 1.0000 0.0750 0.0750 (  1682 PWs)   bands (ev):

    -1.8832  -1.8076   2.8066   3.1257   6.6716   7.0717  15.2381  15.3953

     occupation numbers 
     1.0000   1.0000   1.0000   1.0000   0.0000   0.0000   0.0000   0.0000

          k = 1.0000 0.1000 0.1000 (  1676 PWs)   bands (ev):

    -1.9037  -1.7671   2.6319   3.1553   6.7056   7.3753  14.9759  15.2154

     occupation numbers 
     1.0000   1.0000   1.0000   1.0000   0.0000   0.0000   0.0000   0.0000

          k = 1.0000 0.1250 0.1250 (  1676 PWs)   bands (ev):

    -1.9328  -1.7151   2.4456   3.1932   6.7491   7.7298  14.6894  15.0094

     occupation numbers 
     1.0000   1.0000   1.0000   1.0000   0.0000   0.0000   0.0000   0.0000

          k = 1.0000 0.1500 0.1500 (  1676 PWs)   bands (ev):

    -1.9724  -1.6515   2.2611   3.2393   6.8020   8.1236  14.3897  14.7861

     occupation numbers 
     1.0000   1.0000   1.0000   1.0000   0.0000   0.0000   0.0000   0.0000

          k = 1.0000 0.1750 0.1750 (  1668 PWs)   bands (ev):

    -2.0247  -1.5763   2.0884   3.2933   6.8641   8.5483  14.0842  14.5521

     occupation numbers 
     1.0000   1.0000   1.0000   1.0000   0.0000   0.0000   0.0000   0.0000

          k = 1.0000 0.2000 0.2000 (  1666 PWs)   bands (ev):

    -2.0916  -1.4897   1.9353   3.3552   6.9351   8.9978  13.7773  14.3122

     occupation numbers 
     1.0000   1.0000   1.0000   1.0000   0.0000   0.0000   0.0000   0.0000

          k = 1.0000 0.2250 0.2250 (  1670 PWs)   bands (ev):

    -2.1748  -1.3917   1.8071   3.4245   7.0148   9.4675  13.4722  14.0311

     occupation numbers 
     1.0000   1.0000   1.0000   1.0000   0.0000   0.0000   0.0000   0.0000

          k = 1.0000 0.2500 0.2500 (  1666 PWs)   bands (ev):

    -2.2751  -1.2822   1.7076   3.5011   7.1028   9.9536  13.1709  13.7085

     occupation numbers 
     1.0000   1.0000   1.0000   1.0000   0.0000   0.0000   0.0000   0.0000

          k = 0.9667 0.2417 0.2417 (  1666 PWs)   bands (ev):

    -2.2780  -1.2841   1.7504   3.4787   7.0781   9.7957  13.2021  13.5421

     occupation numbers 
     1.0000   1.0000   1.0000   1.0000   0.0000   0.0000   0.0000   0.0000

          k = 0.9333 0.2333 0.2333 (  1667 PWs)   bands (ev):

    -2.3593  -1.2105   1.8199   3.4649   7.0654   9.6511  13.1310  13.3225

     occupation numbers 
     1.0000   1.0000   1.0000   1.0000   0.0000   0.0000   0.0000   0.0000

          k = 0.9000 0.2250 0.2250 (  1671 PWs)   bands (ev):

    -2.4986  -1.0782   1.9120   3.4600   7.0644   9.5207  13.0107  13.1022

     occupation numbers 
     1.0000   1.0000   1.0000   1.0000   0.0000   0.0000   0.0000   0.0000

          k = 0.8667 0.2167 0.2167 (  1676 PWs)   bands (ev):

    -2.6712  -0.9085   2.0236   3.4639   7.0746   9.4054  12.8701  12.8830

     occupation numbers 
     1.0000   1.0000   1.0000   1.0000   0.0000   0.0000   0.0000   0.0000

          k = 0.8333 0.2083 0.2083 (  1672 PWs)   bands (ev):

    -2.8612  -0.7151   2.1515   3.4769   7.0955   9.3061  12.6655  12.7215

     occupation numbers 
     1.0000   1.0000   1.0000   1.0000   0.0000   0.0000   0.0000   0.0000

          k = 0.8000 0.2000 0.2000 (  1668 PWs)   bands (ev):

    -3.0594  -0.5050   2.2932   3.4990   7.1260   9.2242  12.4499  12.5702

     occupation numbers 
     1.0000   1.0000   1.0000   1.0000   0.0000   0.0000   0.0000   0.0000

          k = 0.7667 0.1917 0.1917 (  1670 PWs)   bands (ev):

    -3.2603  -0.2821   2.4467   3.5303   7.1650   9.1611  12.2364  12.4182

     occupation numbers 
     1.0000   1.0000   1.0000   1.0000   0.0000   0.0000   0.0000   0.0000

          k = 0.7333 0.1833 0.1833 (  1670 PWs)   bands (ev):

    -3.4606  -0.0485   2.6099   3.5706   7.2110   9.1184  12.0252  12.2659

     occupation numbers 
     1.0000   1.0000   1.0000   1.0000   0.0000   0.0000   0.0000   0.0000

          k = 0.7000 0.1750 0.1750 (  1670 PWs)   bands (ev):

    -3.6578   0.1945   2.7812   3.6201   7.2621   9.0977  11.8165  12.1130

     occupation numbers 
     1.0000   1.0000   1.0000   1.0000   0.0000   0.0000   0.0000   0.0000

          k = 0.6667 0.1667 0.1667 (  1664 PWs)   bands (ev):

    -3.8505   0.4461   2.9589   3.6786   7.3165   9.1008  11.6108  11.9587

     occupation numbers 
     1.0000   1.0000   1.0000   1.0000   0.0000   0.0000   0.0000   0.0000

          k = 0.6333 0.1583 0.1583 (  1666 PWs)   bands (ev):

    -4.0373   0.7057   3.1417   3.7461   7.3721   9.1288  11.4085  11.8015

     occupation numbers 
     1.0000   1.0000   1.0000   1.0000   0.0000   0.0000   0.0000   0.0000

          k = 0.6000 0.1500 0.1500 (  1668 PWs)   bands (ev):

    -4.2174   0.9729   3.3281   3.8225   7.4277   9.1820  11.2106  11.6399

     occupation numbers 
     1.0000   1.0000   1.0000   1.0000   0.0000   0.0000   0.0000   0.0000

          k = 0.5667 0.1417 0.1417 (  1667 PWs)   bands (ev):

    -4.3901   1.2473   3.5169   3.9076   7.4821   9.2592  11.0185  11.4723

     occupation numbers 
     1.0000   1.0000   1.0000   1.0000   0.0000   0.0000   0.0000   0.0000

          k = 0.5333 0.1333 0.1333 (  1667 PWs)   bands (ev):

    -4.5547   1.5286   3.7069   4.0012   7.5353   9.3568  10.8350  11.2971

     occupation numbers 
     1.0000   1.0000   1.0000   1.0000   0.0000   0.0000   0.0000   0.0000

          k = 0.5000 0.1250 0.1250 (  1668 PWs)   bands (ev):

    -4.7109   1.8165   3.8969   4.1032   7.5877   9.4672  10.6654  11.1130

     occupation numbers 
     1.0000   1.0000   1.0000   1.0000   0.0000   0.0000   0.0000   0.0000

          k = 0.4667 0.1167 0.1167 (  1665 PWs)   bands (ev):

    -4.8583   2.1106   4.0859   4.2131   7.6402   9.5753  10.5208  10.9193

     occupation numbers 
     1.0000   1.0000   1.0000   1.0000   0.0000   0.0000   0.0000   0.0000

          k = 0.4333 0.1083 0.1083 (  1667 PWs)   bands (ev):

    -4.9965   2.4105   4.2727   4.3306   7.6939   9.6520  10.4242  10.7157

     occupation numbers 
     1.0000   1.0000   1.0000   1.0000   0.0000   0.0000   0.0000   0.0000

          k = 0.4000 0.1000 0.1000 (  1666 PWs)   bands (ev):

    -5.1252   2.7156   4.4552   4.4561   7.7499   9.6586  10.4048  10.5031

     occupation numbers 
     1.0000   1.0000   1.0000   1.0000   0.0000   0.0000   0.0000   0.0000

          k = 0.3667 0.0917 0.0917 (  1670 PWs)   bands (ev):

    -5.2444   3.0252   4.5863   4.6352   7.8090   9.5873  10.2829  10.4542

     occupation numbers 
     1.0000   1.0000   1.0000   1.0000   0.0000   0.0000   0.0000   0.0000

          k = 0.3333 0.0833 0.0833 (  1673 PWs)   bands (ev):

    -5.3536   3.3386   4.7230   4.8087   7.8714   9.4695  10.0573  10.5138

     occupation numbers 
     1.0000   1.0000   1.0000   1.0000   0.0000   0.0000   0.0000   0.0000

          k = 0.3000 0.0750 0.0750 (  1670 PWs)   bands (ev):

    -5.4529   3.6546   4.8643   4.9752   7.9372   9.3330   9.8290  10.5177

     occupation numbers 
     1.0000   1.0000   1.0000   1.0000   0.0000   0.0000   0.0000   0.0000

          k = 0.2667 0.0667 0.0667 (  1681 PWs)   bands (ev):

    -5.5421   3.9715   5.0088   5.1334   8.0057   9.1916   9.6013  10.4217

     occupation numbers 
     1.0000   1.0000   1.0000   1.0000   0.0000   0.0000   0.0000   0.0000

          k = 0.2333 0.0583 0.0583 (  1686 PWs)   bands (ev):

    -5.6210   4.2873   5.1544   5.2817   8.0756   9.0524   9.3778  10.2289

     occupation numbers 
     1.0000   1.0000   1.0000   1.0000   0.0000   0.0000   0.0000   0.0000

          k = 0.2000 0.0500 0.0500 (  1692 PWs)   bands (ev):

    -5.6895   4.5986   5.2987   5.4181   8.1452   8.9195   9.1627   9.9754

     occupation numbers 
     1.0000   1.0000   1.0000   1.0000   0.0000   0.0000   0.0000   0.0000

          k = 0.1667 0.0417 0.0417 (  1683 PWs)   bands (ev):

    -5.7477   4.9006   5.4381   5.5405   8.2120   8.7955   8.9611   9.6977

     occupation numbers 
     1.0000   1.0000   1.0000   1.0000   0.0000   0.0000   0.0000   0.0000

          k = 0.1333 0.0333 0.0333 (  1674 PWs)   bands (ev):

    -5.7953   5.1861   5.5679   5.6464   8.2731   8.6823   8.7789   9.4236

     occupation numbers 
     1.0000   1.0000   1.0000   1.0000   0.0000   0.0000   0.0000   0.0000

          k = 0.1000 0.0250 0.0250 (  1665 PWs)   bands (ev):

    -5.8325   5.4437   5.6817   5.7331   8.3253   8.5806   8.6233   9.1774

     occupation numbers 
     1.0000   1.0000   1.0000   1.0000   0.0000   0.0000   0.0000   0.0000

          k = 0.0667 0.0167 0.0167 (  1667 PWs)   bands (ev):

    -5.8590   5.6559   5.7721   5.7976   8.3653   8.4921   8.5027   8.9835

     occupation numbers 
     1.0000   1.0000   1.0000   1.0000   0.0000   0.0000   0.0000   0.0000

          k = 0.0333 0.0083 0.0083 (  1676 PWs)   bands (ev):

    -5.8749   5.7997   5.8307   5.8376   8.3904   8.4252   8.4256   8.8623

     occupation numbers 
     1.0000   1.0000   1.0000   1.0000   0.0000   0.0000   0.0000   0.0000

          k = 0.0000 0.0000 0.0000 (  1687 PWs)   bands (ev):

    -5.8802   5.8512   5.8512   5.8512   8.3990   8.3990   8.3990   8.8220

     occupation numbers 
     1.0000   1.0000   1.0000   1.0000   0.0000   0.0000   0.0000   0.0000

     the Fermi energy is     6.1699 ev
     (compare with:     6.1698 eV, computed in scf)

     Writing output data file ././silicon.save/

     init_run     :      0.64s CPU      0.64s WALL (       1 calls)
     electrons    :     24.19s CPU     14.03s WALL (       1 calls)

     Called by init_run:
     wfcinit      :      0.00s CPU      0.00s WALL (       1 calls)
     wfcinit:atom :      0.03s CPU      0.02s WALL (      91 calls)
     wfcinit:wfcr :      1.12s CPU      0.71s WALL (      91 calls)
     potinit      :      0.24s CPU      0.25s WALL (       1 calls)
     hinit0       :      0.30s CPU      0.26s WALL (       1 calls)

     Called by electrons:
     c_bands      :     24.19s CPU     14.03s WALL (       1 calls)
     v_of_rho     :      0.03s CPU      0.04s WALL (       1 calls)
     v_h          :      0.00s CPU      0.00s WALL (       1 calls)
     v_xc         :      0.03s CPU      0.03s WALL (       1 calls)
     newd         :      0.06s CPU      0.09s WALL (       1 calls)
     PAW_pot      :      0.20s CPU      0.21s WALL (       1 calls)

     Called by c_bands:
     init_us_2    :      0.07s CPU      0.04s WALL (      91 calls)
     cegterg      :     22.29s CPU     12.86s WALL (     148 calls)

     Called by sum_band:

     Called by *egterg:
     cdiaghg      :      0.34s CPU      0.19s WALL (    2205 calls)
     cegterg:over :      0.34s CPU      0.19s WALL (    2114 calls)
     cegterg:upda :      0.26s CPU      0.14s WALL (    2114 calls)
     cegterg:last :      0.49s CPU      0.25s WALL (    1582 calls)
     h_psi        :     21.24s CPU     12.40s WALL (    2353 calls)
     s_psi        :      0.30s CPU      0.18s WALL (    2353 calls)
     g_psi        :      0.22s CPU      0.11s WALL (    2114 calls)

     Called by h_psi:
     h_psi:calbec :      0.46s CPU      0.34s WALL (    2353 calls)
     vloc_psi     :     20.35s CPU     11.81s WALL (    2353 calls)
     add_vuspsi   :      0.33s CPU      0.20s WALL (    2353 calls)

     General routines
     calbec       :      0.46s CPU      0.33s WALL (    2353 calls)
     fft          :      0.01s CPU      0.01s WALL (      13 calls)
     ffts         :      0.00s CPU      0.00s WALL (       1 calls)
     fftw         :     17.68s CPU     10.26s WALL (   26712 calls)
     interpolate  :      0.00s CPU      0.00s WALL (       1 calls)
     davcio       :      0.03s CPU      0.02s WALL (     182 calls)

     Parallel routines

     PAW routines
     PAW_pot      :      0.20s CPU      0.21s WALL (       1 calls)

     PWSCF        :     25.04s CPU     14.92s WALL


   This run was terminated on:  10:38:12  22May2024            

=------------------------------------------------------------------------------=
   JOB DONE.
=------------------------------------------------------------------------------=
