
     Program PWSCF v.6.7MaX starts on 21May2024 at 14:17:33 

     This program is part of the open-source Quantum ESPRESSO suite
     for quantum simulation of materials; please cite
         "P. Giannozzi et al., J. Phys.:Condens. Matter 21 395502 (2009);
         "P. Giannozzi et al., J. Phys.:Condens. Matter 29 465901 (2017);
          URL http://www.quantum-espresso.org", 
     in publications or presentations arising from this work. More details at
     http://www.quantum-espresso.org/quote

     Parallel version (MPI), running on     1 processors

     MPI processes distributed on     1 nodes
     Waiting for input...
     Reading input from standard input

     Current dimensions of program PWSCF are:
     Max number of different atomic species (ntypx) = 10
     Max number of k-points (npk) =  40000
     Max angular momentum in pseudopotentials (lmaxx) =  3
     file Si.UPF: wavefunction(s)  3S 3P renormalized

     Subspace diagonalization in iterative solution of the eigenvalue problem:
     a serial algorithm will be used


     G-vector sticks info
     --------------------
     sticks:   dense  smooth     PW     G-vecs:    dense   smooth      PW
     Sum         421     421    139                 5577     5577    1067



     bravais-lattice index     =            2
     lattice parameter (alat)  =      10.0000  a.u.
     unit-cell volume          =     250.0000 (a.u.)^3
     number of atoms/cell      =            2
     number of atomic types    =            1
     number of electrons       =         8.00
     number of Kohn-Sham states=            4
     kinetic-energy cutoff     =      30.0000  Ry
     charge density cutoff     =     120.0000  Ry
     scf convergence threshold =      1.0E-06
     mixing beta               =       0.6000
     number of iterations used =            8  plain     mixing
     Exchange-correlation= SLA  PW   PBX  PBC
                           (   1   4   3   4   0   0   0)

     celldm(1)=  10.000000  celldm(2)=   0.000000  celldm(3)=   0.000000
     celldm(4)=   0.000000  celldm(5)=   0.000000  celldm(6)=   0.000000

     crystal axes: (cart. coord. in units of alat)
               a(1) = (  -0.500000   0.000000   0.500000 )  
               a(2) = (   0.000000   0.500000   0.500000 )  
               a(3) = (  -0.500000   0.500000   0.000000 )  

     reciprocal axes: (cart. coord. in units 2 pi/alat)
               b(1) = ( -1.000000 -1.000000  1.000000 )  
               b(2) = (  1.000000  1.000000  1.000000 )  
               b(3) = ( -1.000000  1.000000 -1.000000 )  


     PseudoPot. # 1 for Si read from file:
     ././Si.UPF
     MD5 check sum: c39c59da582df4a0d9f10159256ea34e
     Pseudo is Projector augmented-wave + core cor, Zval =  4.0
     Generated using &quot;atomic&quot; code by A. Dal Corso  v.6.3
     Shape of augmentation charge: PSQ
     Using radial grid of 1141 points,  6 beta functions with: 
                l(1) =   0
                l(2) =   0
                l(3) =   1
                l(4) =   1
                l(5) =   2
                l(6) =   2
     Q(r) pseudized with 0 coefficients 


     atomic species   valence    mass     pseudopotential
        Si             4.00    28.08600     Si( 1.00)

     48 Sym. Ops., with inversion, found (24 have fractional translation)



   Cartesian axes

     site n.     atom                  positions (alat units)
         1           Si  tau(   1) = (   0.0000000   0.0000000   0.0000000  )
         2           Si  tau(   2) = (   0.2500000   0.2500000   0.2500000  )

     number of k points=    60
                       cart. coord. in units 2pi/alat
        k(    1) = (  -0.0625000   0.0625000   0.0625000), wk =   0.0078125
        k(    2) = (  -0.1875000   0.1875000  -0.0625000), wk =   0.0234375
        k(    3) = (  -0.3125000   0.3125000  -0.1875000), wk =   0.0234375
        k(    4) = (  -0.4375000   0.4375000  -0.3125000), wk =   0.0234375
        k(    5) = (   0.4375000  -0.4375000   0.5625000), wk =   0.0234375
        k(    6) = (   0.3125000  -0.3125000   0.4375000), wk =   0.0234375
        k(    7) = (   0.1875000  -0.1875000   0.3125000), wk =   0.0234375
        k(    8) = (   0.0625000  -0.0625000   0.1875000), wk =   0.0234375
        k(    9) = (  -0.0625000   0.3125000   0.0625000), wk =   0.0234375
        k(   10) = (  -0.1875000   0.4375000  -0.0625000), wk =   0.0468750
        k(   11) = (  -0.3125000   0.5625000  -0.1875000), wk =   0.0468750
        k(   12) = (   0.5625000  -0.3125000   0.6875000), wk =   0.0468750
        k(   13) = (   0.4375000  -0.1875000   0.5625000), wk =   0.0468750
        k(   14) = (   0.3125000  -0.0625000   0.4375000), wk =   0.0468750
        k(   15) = (   0.1875000   0.0625000   0.3125000), wk =   0.0468750
        k(   16) = (  -0.0625000   0.5625000   0.0625000), wk =   0.0234375
        k(   17) = (  -0.1875000   0.6875000  -0.0625000), wk =   0.0468750
        k(   18) = (   0.6875000  -0.1875000   0.8125000), wk =   0.0468750
        k(   19) = (   0.5625000  -0.0625000   0.6875000), wk =   0.0468750
        k(   20) = (   0.4375000   0.0625000   0.5625000), wk =   0.0468750
        k(   21) = (   0.3125000   0.1875000   0.4375000), wk =   0.0468750
        k(   22) = (  -0.0625000   0.8125000   0.0625000), wk =   0.0234375
        k(   23) = (   0.8125000  -0.0625000   0.9375000), wk =   0.0468750
        k(   24) = (   0.6875000   0.0625000   0.8125000), wk =   0.0468750
        k(   25) = (   0.5625000   0.1875000   0.6875000), wk =   0.0468750
        k(   26) = (   0.4375000   0.3125000   0.5625000), wk =   0.0468750
        k(   27) = (  -0.0625000  -0.9375000   0.0625000), wk =   0.0234375
        k(   28) = (  -0.1875000  -0.8125000  -0.0625000), wk =   0.0468750
        k(   29) = (  -0.3125000  -0.6875000  -0.1875000), wk =   0.0468750
        k(   30) = (  -0.0625000  -0.6875000   0.0625000), wk =   0.0234375
        k(   31) = (  -0.1875000  -0.5625000  -0.0625000), wk =   0.0468750
        k(   32) = (  -0.0625000  -0.4375000   0.0625000), wk =   0.0234375
        k(   33) = (  -0.1875000   0.1875000   0.1875000), wk =   0.0078125
        k(   34) = (  -0.3125000   0.3125000   0.0625000), wk =   0.0234375
        k(   35) = (  -0.4375000   0.4375000  -0.0625000), wk =   0.0234375
        k(   36) = (   0.4375000  -0.4375000   0.8125000), wk =   0.0234375
        k(   37) = (   0.3125000  -0.3125000   0.6875000), wk =   0.0234375
        k(   38) = (   0.1875000  -0.1875000   0.5625000), wk =   0.0234375
        k(   39) = (  -0.1875000   0.4375000   0.1875000), wk =   0.0234375
        k(   40) = (  -0.3125000   0.5625000   0.0625000), wk =   0.0468750
        k(   41) = (   0.5625000  -0.3125000   0.9375000), wk =   0.0468750
        k(   42) = (   0.4375000  -0.1875000   0.8125000), wk =   0.0468750
        k(   43) = (   0.3125000  -0.0625000   0.6875000), wk =   0.0468750
        k(   44) = (  -0.1875000   0.6875000   0.1875000), wk =   0.0234375
        k(   45) = (   0.6875000  -0.1875000   1.0625000), wk =   0.0468750
        k(   46) = (   0.5625000  -0.0625000   0.9375000), wk =   0.0468750
        k(   47) = (   0.4375000   0.0625000   0.8125000), wk =   0.0468750
        k(   48) = (  -0.1875000  -1.0625000   0.1875000), wk =   0.0234375
        k(   49) = (  -0.3125000  -0.9375000   0.0625000), wk =   0.0468750
        k(   50) = (  -0.1875000  -0.8125000   0.1875000), wk =   0.0234375
        k(   51) = (  -0.3125000   0.3125000   0.3125000), wk =   0.0078125
        k(   52) = (  -0.4375000   0.4375000   0.1875000), wk =   0.0234375
        k(   53) = (   0.4375000  -0.4375000   1.0625000), wk =   0.0234375
        k(   54) = (   0.3125000  -0.3125000   0.9375000), wk =   0.0234375
        k(   55) = (  -0.3125000   0.5625000   0.3125000), wk =   0.0234375
        k(   56) = (   0.5625000  -0.3125000   1.1875000), wk =   0.0468750
        k(   57) = (   0.4375000  -0.1875000   1.0625000), wk =   0.0468750
        k(   58) = (  -0.3125000  -1.1875000   0.3125000), wk =   0.0234375
        k(   59) = (  -0.4375000   0.4375000   0.4375000), wk =   0.0078125
        k(   60) = (   0.4375000  -0.4375000   1.3125000), wk =   0.0234375

     Dense  grid:     5577 G-vectors     FFT dimensions: (  32,  32,  32)

     Estimated max dynamical RAM per process >      24.41 MB

     Check: negative core charge=   -0.000003

     Initial potential from superposition of free atoms

     starting charge    7.99888, renormalised to    8.00000
     Starting wfcs are    8 randomized atomic wfcs
     Checking if some PAW data can be deallocated... 

     total cpu time spent up to now is        0.6 secs

     Self-consistent Calculation

     iteration #  1     ecut=    30.00 Ry     beta= 0.60
     Davidson diagonalization with overlap
     ethr =  1.00E-02,  avg # of iterations =  2.0

     Threshold (ethr) on eigenvalues was too large:
     Diagonalizing with lowered threshold

     Davidson diagonalization with overlap
     ethr =  7.09E-04,  avg # of iterations =  1.2

     total cpu time spent up to now is        1.6 secs

     total energy              =     -93.44221231 Ry
     estimated scf accuracy    <       0.06122676 Ry

     iteration #  2     ecut=    30.00 Ry     beta= 0.60
     Davidson diagonalization with overlap
     ethr =  7.65E-04,  avg # of iterations =  1.0

     total cpu time spent up to now is        2.1 secs

     total energy              =     -93.44323309 Ry
     estimated scf accuracy    <       0.00648187 Ry

     iteration #  3     ecut=    30.00 Ry     beta= 0.60
     Davidson diagonalization with overlap
     ethr =  8.10E-05,  avg # of iterations =  2.0

     total cpu time spent up to now is        2.7 secs

     total energy              =     -93.44446378 Ry
     estimated scf accuracy    <       0.00018405 Ry

     iteration #  4     ecut=    30.00 Ry     beta= 0.60
     Davidson diagonalization with overlap
     ethr =  2.30E-06,  avg # of iterations =  4.1

     total cpu time spent up to now is        3.4 secs

     total energy              =     -93.44457668 Ry
     estimated scf accuracy    <       0.00002976 Ry

     iteration #  5     ecut=    30.00 Ry     beta= 0.60
     Davidson diagonalization with overlap
     ethr =  3.72E-07,  avg # of iterations =  3.3

     total cpu time spent up to now is        4.0 secs

     End of self-consistent calculation

          k =-0.0625 0.0625 0.0625 (   700 PWs)   bands (ev):

    -5.4144   6.5160   6.9581   6.9581

          k =-0.1875 0.1875-0.0625 (   692 PWs)   bands (ev):

    -5.1245   4.9679   6.0690   6.8418

          k =-0.3125 0.3125-0.1875 (   691 PWs)   bands (ev):

    -4.4219   2.5870   5.5624   6.3453

          k =-0.4375 0.4375-0.3125 (   692 PWs)   bands (ev):

    -3.4266   0.5415   5.3468   5.9072

          k = 0.4375-0.4375 0.5625 (   697 PWs)   bands (ev):

    -2.9135  -0.2407   5.4126   5.6661

          k = 0.3125-0.3125 0.4375 (   687 PWs)   bands (ev):

    -3.7709   1.1516   5.6772   5.7243

          k = 0.1875-0.1875 0.3125 (   690 PWs)   bands (ev):

    -4.6981   3.3699   5.9636   6.2191

          k = 0.0625-0.0625 0.1875 (   692 PWs)   bands (ev):

    -5.2688   5.7615   6.4809   6.6888

          k =-0.0625 0.3125 0.0625 (   689 PWs)   bands (ev):

    -4.9788   4.8745   5.8695   6.0034

          k =-0.1875 0.4375-0.0625 (   694 PWs)   bands (ev):

    -4.4104   3.2909   4.8217   5.7156

          k =-0.3125 0.5625-0.1875 (   693 PWs)   bands (ev):

    -3.4859   1.2571   4.3328   5.2521

          k = 0.5625-0.3125 0.6875 (   692 PWs)   bands (ev):

    -2.6251  -0.0912   4.0344   5.1448

          k = 0.4375-0.1875 0.5625 (   694 PWs)   bands (ev):

    -3.1471   0.6833   3.9344   5.4646

          k = 0.3125-0.0625 0.4375 (   696 PWs)   bands (ev):

    -4.1397   2.5833   4.2141   6.0290

          k = 0.1875 0.0625 0.3125 (   685 PWs)   bands (ev):

    -4.8373   4.1286   5.4408   6.4419

          k =-0.0625 0.5625 0.0625 (   696 PWs)   bands (ev):

    -3.9780   2.8325   4.6659   4.7984

          k =-0.1875 0.6875-0.0625 (   692 PWs)   bands (ev):

    -3.1603   1.5085   3.7958   4.4130

          k = 0.6875-0.1875 0.8125 (   695 PWs)   bands (ev):

    -2.1629   0.1823   2.8758   4.3809

          k = 0.5625-0.0625 0.6875 (   695 PWs)   bands (ev):

    -2.2339   0.2798   2.4745   4.7626

          k = 0.4375 0.0625 0.5625 (   691 PWs)   bands (ev):

    -3.2261   1.2785   3.1588   5.4122

          k = 0.3125 0.1875 0.4375 (   694 PWs)   bands (ev):

    -4.0144   1.8783   4.9846   5.9251

          k =-0.0625 0.8125 0.0625 (   692 PWs)   bands (ev):

    -2.4551   0.5910   3.9092   4.1607

          k = 0.8125-0.0625 0.9375 (   699 PWs)   bands (ev):

    -1.4600  -0.4738   3.2751   3.8809

          k = 0.6875 0.0625 0.8125 (   701 PWs)   bands (ev):

    -1.5341  -0.3156   2.4528   4.2257

          k = 0.5625 0.1875 0.6875 (   695 PWs)   bands (ev):

    -2.3497   0.0083   3.1470   4.8874

          k = 0.4375 0.3125 0.5625 (   695 PWs)   bands (ev):

    -3.0195   0.1055   4.8213   5.5503

          k =-0.0625-0.9375 0.0625 (   698 PWs)   bands (ev):

    -1.5236  -0.4989   3.7597   4.0306

          k =-0.1875-0.8125-0.0625 (   692 PWs)   bands (ev):

    -2.3571   0.5254   3.4533   4.0522

          k =-0.3125-0.6875-0.1875 (   693 PWs)   bands (ev):

    -2.8553   0.7065   3.5803   4.7102

          k =-0.0625-0.6875 0.0625 (   696 PWs)   bands (ev):

    -3.2776   1.7153   4.2101   4.4184

          k =-0.1875-0.5625-0.0625 (   691 PWs)   bands (ev):

    -3.8488   2.4302   4.2651   4.9832

          k =-0.0625-0.4375 0.0625 (   691 PWs)   bands (ev):

    -4.5471   3.8968   5.2761   5.2898

          k =-0.1875 0.1875 0.1875 (   691 PWs)   bands (ev):

    -4.9818   4.1805   6.4791   6.4791

          k =-0.3125 0.3125 0.0625 (   686 PWs)   bands (ev):

    -4.5563   3.3386   4.8163   6.5187

          k =-0.4375 0.4375-0.0625 (   688 PWs)   bands (ev):

    -3.7412   1.9031   3.6362   5.9636

          k = 0.4375-0.4375 0.8125 (   694 PWs)   bands (ev):

    -2.7449   0.2474   3.5163   5.3779

          k = 0.3125-0.3125 0.6875 (   695 PWs)   bands (ev):

    -2.7296   0.2185   3.8572   5.0244

          k = 0.1875-0.1875 0.5625 (   690 PWs)   bands (ev):

    -3.7255   1.8966   4.5163   4.9896

          k =-0.1875 0.4375 0.1875 (   691 PWs)   bands (ev):

    -4.2771   2.6112   5.4359   5.4443

          k =-0.3125 0.5625 0.0625 (   689 PWs)   bands (ev):

    -3.5948   1.8617   3.6972   5.2376

          k = 0.5625-0.3125 0.9375 (   692 PWs)   bands (ev):

    -2.6136   0.7007   2.8188   4.5946

          k = 0.4375-0.1875 0.8125 (   698 PWs)   bands (ev):

    -2.0636   0.0062   2.8477   4.2410

          k = 0.3125-0.0625 0.6875 (   691 PWs)   bands (ev):

    -2.9332   1.1394   3.2901   4.4440

          k =-0.1875 0.6875 0.1875 (   692 PWs)   bands (ev):

    -3.0542   1.1785   3.6750   4.6316

          k = 0.6875-0.1875 1.0625 (   694 PWs)   bands (ev):

    -2.1744   0.3715   3.0051   3.8426

          k = 0.5625-0.0625 0.9375 (   699 PWs)   bands (ev):

    -1.2773  -0.4313   2.6301   3.2777

          k = 0.4375 0.0625 0.8125 (   697 PWs)   bands (ev):

    -1.9377   0.1362   2.6427   3.8079

          k =-0.1875-1.0625 0.1875 (   696 PWs)   bands (ev):

    -1.4675  -0.4281   2.7506   4.2620

          k =-0.3125-0.9375 0.0625 (   697 PWs)   bands (ev):

    -1.3591  -0.4445   2.8547   3.5318

          k =-0.1875-0.8125 0.1875 (   696 PWs)   bands (ev):

    -2.2828   0.3975   3.0611   4.3863

          k =-0.3125 0.3125 0.3125 (   694 PWs)   bands (ev):

    -4.1571   1.8203   6.0411   6.0411

          k =-0.4375 0.4375 0.1875 (   690 PWs)   bands (ev):

    -3.6316   1.2238   4.4619   5.9513

          k = 0.4375-0.4375 1.0625 (   690 PWs)   bands (ev):

    -2.7614   0.7443   2.7336   5.3054

          k = 0.3125-0.3125 0.9375 (   699 PWs)   bands (ev):

    -1.8490  -0.0687   2.3314   4.7041

          k =-0.3125 0.5625 0.3125 (   696 PWs)   bands (ev):

    -3.2821   0.6112   4.8596   5.3221

          k = 0.5625-0.3125 1.1875 (   693 PWs)   bands (ev):

    -2.5980   0.2738   3.4007   4.7786

          k = 0.4375-0.1875 1.0625 (   700 PWs)   bands (ev):

    -1.7014  -0.1174   2.4310   3.9827

          k =-0.3125-1.1875 0.3125 (   700 PWs)   bands (ev):

    -2.1980  -0.0066   2.9377   4.8131

          k =-0.4375 0.4375 0.4375 (   700 PWs)   bands (ev):

    -3.1628   0.0212   5.8104   5.8104

          k = 0.4375-0.4375 1.3125 (   699 PWs)   bands (ev):

    -2.7702  -0.1573   4.5063   5.5082

     highest occupied level (ev):     6.9581

!    total energy              =     -93.44458678 Ry

     total all-electron energy =     -1160.136317 Ry
     estimated scf accuracy    <       0.00000082 Ry

     The total energy is the sum of the following terms:
     one-electron contribution =       6.36747463 Ry
     hartree contribution      =       1.03220318 Ry
     xc contribution           =     -12.40587443 Ry
     ewald contribution        =     -17.23775378 Ry
     one-center paw contrib.   =     -71.20063638 Ry

     convergence has been achieved in   5 iterations

     Writing output data file ././silicon.save/

     init_run     :      0.72s CPU      0.56s WALL (       1 calls)
     electrons    :      5.09s CPU      3.42s WALL (       1 calls)

     Called by init_run:
     wfcinit      :      0.28s CPU      0.17s WALL (       1 calls)
     potinit      :      0.21s CPU      0.21s WALL (       1 calls)
     hinit0       :      0.21s CPU      0.16s WALL (       1 calls)

     Called by electrons:
     c_bands      :      3.02s CPU      1.85s WALL (       6 calls)
     sum_band     :      0.64s CPU      0.38s WALL (       6 calls)
     v_of_rho     :      0.07s CPU      0.05s WALL (       6 calls)
     newd         :      0.04s CPU      0.04s WALL (       6 calls)
     PAW_pot      :      1.53s CPU      1.31s WALL (       6 calls)
     mix_rho      :      0.00s CPU      0.00s WALL (       6 calls)

     Called by c_bands:
     init_us_2    :      0.24s CPU      0.15s WALL (     780 calls)
     cegterg      :      2.12s CPU      1.26s WALL (     360 calls)

     Called by *egterg:
     cdiaghg      :      0.05s CPU      0.03s WALL (    1119 calls)
     h_psi        :      2.10s CPU      1.25s WALL (    1239 calls)
     s_psi        :      0.06s CPU      0.03s WALL (    1239 calls)
     g_psi        :      0.02s CPU      0.01s WALL (     819 calls)

     Called by h_psi:
     h_psi:calbec :      0.12s CPU      0.08s WALL (    1239 calls)
     vloc_psi     :      1.90s CPU      1.12s WALL (    1239 calls)
     add_vuspsi   :      0.07s CPU      0.04s WALL (    1239 calls)

     General routines
     calbec       :      0.14s CPU      0.09s WALL (    1599 calls)
     fft          :      0.01s CPU      0.01s WALL (      67 calls)
     ffts         :      0.00s CPU      0.00s WALL (       6 calls)
     fftw         :      1.46s CPU      0.87s WALL (   10572 calls)

     Parallel routines

     PWSCF        :      5.89s CPU      4.06s WALL


   This run was terminated on:  14:17:37  21May2024            

=------------------------------------------------------------------------------=
   JOB DONE.
=------------------------------------------------------------------------------=
