
     Program PWSCF v.6.7MaX starts on 21May2024 at 14:17:27 

     This program is part of the open-source Quantum ESPRESSO suite
     for quantum simulation of materials; please cite
         "P. Giannozzi et al., J. Phys.:Condens. Matter 21 395502 (2009);
         "P. Giannozzi et al., J. Phys.:Condens. Matter 29 465901 (2017);
          URL http://www.quantum-espresso.org", 
     in publications or presentations arising from this work. More details at
     http://www.quantum-espresso.org/quote

     Parallel version (MPI), running on     1 processors

     MPI processes distributed on     1 nodes
     Waiting for input...
     Reading input from standard input

     Current dimensions of program PWSCF are:
     Max number of different atomic species (ntypx) = 10
     Max number of k-points (npk) =  40000
     Max angular momentum in pseudopotentials (lmaxx) =  3
     file Si.UPF: wavefunction(s)  3S 3P renormalized

     Subspace diagonalization in iterative solution of the eigenvalue problem:
     a serial algorithm will be used


     G-vector sticks info
     --------------------
     sticks:   dense  smooth     PW     G-vecs:    dense   smooth      PW
     Sum         421     421    139                 5577     5577    1037



     bravais-lattice index     =            2
     lattice parameter (alat)  =      10.0000  a.u.
     unit-cell volume          =     250.0000 (a.u.)^3
     number of atoms/cell      =            2
     number of atomic types    =            1
     number of electrons       =         8.00
     number of Kohn-Sham states=            4
     kinetic-energy cutoff     =      30.0000  Ry
     charge density cutoff     =     120.0000  Ry
     scf convergence threshold =      1.0E-06
     mixing beta               =       0.6000
     number of iterations used =            8  plain     mixing
     Exchange-correlation= SLA  PW   PBX  PBC
                           (   1   4   3   4   0   0   0)

     celldm(1)=  10.000000  celldm(2)=   0.000000  celldm(3)=   0.000000
     celldm(4)=   0.000000  celldm(5)=   0.000000  celldm(6)=   0.000000

     crystal axes: (cart. coord. in units of alat)
               a(1) = (  -0.500000   0.000000   0.500000 )  
               a(2) = (   0.000000   0.500000   0.500000 )  
               a(3) = (  -0.500000   0.500000   0.000000 )  

     reciprocal axes: (cart. coord. in units 2 pi/alat)
               b(1) = ( -1.000000 -1.000000  1.000000 )  
               b(2) = (  1.000000  1.000000  1.000000 )  
               b(3) = ( -1.000000  1.000000 -1.000000 )  


     PseudoPot. # 1 for Si read from file:
     ././Si.UPF
     MD5 check sum: c39c59da582df4a0d9f10159256ea34e
     Pseudo is Projector augmented-wave + core cor, Zval =  4.0
     Generated using &quot;atomic&quot; code by A. Dal Corso  v.6.3
     Shape of augmentation charge: PSQ
     Using radial grid of 1141 points,  6 beta functions with: 
                l(1) =   0
                l(2) =   0
                l(3) =   1
                l(4) =   1
                l(5) =   2
                l(6) =   2
     Q(r) pseudized with 0 coefficients 


     atomic species   valence    mass     pseudopotential
        Si             4.00    28.08600     Si( 1.00)

     48 Sym. Ops., with inversion, found (24 have fractional translation)



   Cartesian axes

     site n.     atom                  positions (alat units)
         1           Si  tau(   1) = (   0.0000000   0.0000000   0.0000000  )
         2           Si  tau(   2) = (   0.2500000   0.2500000   0.2500000  )

     number of k points=    10
                       cart. coord. in units 2pi/alat
        k(    1) = (  -0.1250000   0.1250000   0.1250000), wk =   0.0625000
        k(    2) = (  -0.3750000   0.3750000  -0.1250000), wk =   0.1875000
        k(    3) = (   0.3750000  -0.3750000   0.6250000), wk =   0.1875000
        k(    4) = (   0.1250000  -0.1250000   0.3750000), wk =   0.1875000
        k(    5) = (  -0.1250000   0.6250000   0.1250000), wk =   0.1875000
        k(    6) = (   0.6250000  -0.1250000   0.8750000), wk =   0.3750000
        k(    7) = (   0.3750000   0.1250000   0.6250000), wk =   0.3750000
        k(    8) = (  -0.1250000  -0.8750000   0.1250000), wk =   0.1875000
        k(    9) = (  -0.3750000   0.3750000   0.3750000), wk =   0.0625000
        k(   10) = (   0.3750000  -0.3750000   1.1250000), wk =   0.1875000

     Dense  grid:     5577 G-vectors     FFT dimensions: (  32,  32,  32)

     Estimated max dynamical RAM per process >      22.29 MB

     Check: negative core charge=   -0.000003

     Initial potential from superposition of free atoms

     starting charge    7.99888, renormalised to    8.00000
     Starting wfcs are    8 randomized atomic wfcs
     Checking if some PAW data can be deallocated... 

     total cpu time spent up to now is        0.5 secs

     Self-consistent Calculation

     iteration #  1     ecut=    30.00 Ry     beta= 0.60
     Davidson diagonalization with overlap
     ethr =  1.00E-02,  avg # of iterations =  2.0

     Threshold (ethr) on eigenvalues was too large:
     Diagonalizing with lowered threshold

     Davidson diagonalization with overlap
     ethr =  7.08E-04,  avg # of iterations =  1.2

     total cpu time spent up to now is        0.9 secs

     total energy              =     -93.44208659 Ry
     estimated scf accuracy    <       0.06121814 Ry

     iteration #  2     ecut=    30.00 Ry     beta= 0.60
     Davidson diagonalization with overlap
     ethr =  7.65E-04,  avg # of iterations =  1.0

     total cpu time spent up to now is        1.2 secs

     total energy              =     -93.44308774 Ry
     estimated scf accuracy    <       0.00650474 Ry

     iteration #  3     ecut=    30.00 Ry     beta= 0.60
     Davidson diagonalization with overlap
     ethr =  8.13E-05,  avg # of iterations =  2.0

     total cpu time spent up to now is        1.5 secs

     total energy              =     -93.44426491 Ry
     estimated scf accuracy    <       0.00017243 Ry

     iteration #  4     ecut=    30.00 Ry     beta= 0.60
     Davidson diagonalization with overlap
     ethr =  2.16E-06,  avg # of iterations =  4.3

     total cpu time spent up to now is        1.8 secs

     total energy              =     -93.44438306 Ry
     estimated scf accuracy    <       0.00001899 Ry

     iteration #  5     ecut=    30.00 Ry     beta= 0.60
     Davidson diagonalization with overlap
     ethr =  2.37E-07,  avg # of iterations =  3.7

     total cpu time spent up to now is        2.1 secs

     End of self-consistent calculation

          k =-0.1250 0.1250 0.1250 (   697 PWs)   bands (ev):

    -5.2504   5.4134   6.7381   6.7381

          k =-0.3750 0.3750-0.1250 (   695 PWs)   bands (ev):

    -4.1284   2.2510   4.5789   6.2345

          k = 0.3750-0.3750 0.6250 (   695 PWs)   bands (ev):

    -2.8484  -0.0471   4.6493   5.3792

          k = 0.1250-0.1250 0.3750 (   688 PWs)   bands (ev):

    -4.6755   3.7480   5.6228   5.7513

          k =-0.1250 0.6250 0.1250 (   691 PWs)   bands (ev):

    -3.5508   2.0116   4.1739   4.6720

          k = 0.6250-0.1250 0.8750 (   701 PWs)   bands (ev):

    -1.7313  -0.0950   2.6441   3.8359

          k = 0.3750 0.1250 0.6250 (   694 PWs)   bands (ev):

    -3.0848   0.9998   3.4931   4.9677

          k =-0.1250-0.8750 0.1250 (   697 PWs)   bands (ev):

    -1.9418   0.0261   3.3247   4.1668

          k =-0.3750 0.3750 0.3750 (   688 PWs)   bands (ev):

    -3.6447   0.8084   5.8979   5.8979

          k = 0.3750-0.3750 1.1250 (   694 PWs)   bands (ev):

    -2.3104   0.1459   2.7522   5.0262

     highest occupied level (ev):     6.7381

!    total energy              =     -93.44439201 Ry

     total all-electron energy =     -1160.136122 Ry
     estimated scf accuracy    <       0.00000064 Ry

     The total energy is the sum of the following terms:
     one-electron contribution =       6.36743065 Ry
     hartree contribution      =       1.03280171 Ry
     xc contribution           =     -12.40617752 Ry
     ewald contribution        =     -17.23775378 Ry
     one-center paw contrib.   =     -71.20069308 Ry

     convergence has been achieved in   5 iterations

     Writing output data file ././silicon.save/

     init_run     :      0.48s CPU      0.42s WALL (       1 calls)
     electrons    :      2.26s CPU      1.63s WALL (       1 calls)

     Called by init_run:
     wfcinit      :      0.05s CPU      0.03s WALL (       1 calls)
     potinit      :      0.21s CPU      0.22s WALL (       1 calls)
     hinit0       :      0.20s CPU      0.16s WALL (       1 calls)

     Called by electrons:
     c_bands      :      0.52s CPU      0.31s WALL (       6 calls)
     sum_band     :      0.25s CPU      0.13s WALL (       6 calls)
     v_of_rho     :      0.09s CPU      0.05s WALL (       6 calls)
     newd         :      0.05s CPU      0.04s WALL (       6 calls)
     PAW_pot      :      1.56s CPU      1.31s WALL (       6 calls)
     mix_rho      :      0.00s CPU      0.00s WALL (       6 calls)

     Called by c_bands:
     init_us_2    :      0.05s CPU      0.02s WALL (     130 calls)
     cegterg      :      0.38s CPU      0.21s WALL (      60 calls)

     Called by *egterg:
     cdiaghg      :      0.01s CPU      0.01s WALL (     192 calls)
     h_psi        :      0.37s CPU      0.21s WALL (     212 calls)
     s_psi        :      0.01s CPU      0.01s WALL (     212 calls)
     g_psi        :      0.00s CPU      0.00s WALL (     142 calls)

     Called by h_psi:
     h_psi:calbec :      0.02s CPU      0.01s WALL (     212 calls)
     vloc_psi     :      0.34s CPU      0.19s WALL (     212 calls)
     add_vuspsi   :      0.01s CPU      0.01s WALL (     212 calls)

     General routines
     calbec       :      0.02s CPU      0.01s WALL (     272 calls)
     fft          :      0.02s CPU      0.01s WALL (      67 calls)
     ffts         :      0.00s CPU      0.00s WALL (       6 calls)
     fftw         :      0.27s CPU      0.15s WALL (    1792 calls)

     Parallel routines

     PWSCF        :      2.81s CPU      2.13s WALL


   This run was terminated on:  14:17:30  21May2024            

=------------------------------------------------------------------------------=
   JOB DONE.
=------------------------------------------------------------------------------=
