
     Program PWSCF v.6.7MaX starts on 21May2024 at 13:53: 8 

     This program is part of the open-source Quantum ESPRESSO suite
     for quantum simulation of materials; please cite
         "P. Giannozzi et al., J. Phys.:Condens. Matter 21 395502 (2009);
         "P. Giannozzi et al., J. Phys.:Condens. Matter 29 465901 (2017);
          URL http://www.quantum-espresso.org", 
     in publications or presentations arising from this work. More details at
     http://www.quantum-espresso.org/quote

     Parallel version (MPI), running on     1 processors

     MPI processes distributed on     1 nodes
     Waiting for input...
     Reading input from standard input

     Current dimensions of program PWSCF are:
     Max number of different atomic species (ntypx) = 10
     Max number of k-points (npk) =  40000
     Max angular momentum in pseudopotentials (lmaxx) =  3
     file Si.UPF: wavefunction(s)  3S 3P renormalized

     Subspace diagonalization in iterative solution of the eigenvalue problem:
     a serial algorithm will be used


     G-vector sticks info
     --------------------
     sticks:   dense  smooth     PW     G-vecs:    dense   smooth      PW
     Sum         511     511    163                 7799     7799    1459



     bravais-lattice index     =            2
     lattice parameter (alat)  =      10.3800  a.u.
     unit-cell volume          =     279.5967 (a.u.)^3
     number of atoms/cell      =            2
     number of atomic types    =            1
     number of electrons       =         8.00
     number of Kohn-Sham states=            4
     kinetic-energy cutoff     =      35.0000  Ry
     charge density cutoff     =     140.0000  Ry
     scf convergence threshold =      1.0E-06
     mixing beta               =       0.6000
     number of iterations used =            8  plain     mixing
     Exchange-correlation= SLA  PW   PBX  PBC
                           (   1   4   3   4   0   0   0)

     celldm(1)=  10.380000  celldm(2)=   0.000000  celldm(3)=   0.000000
     celldm(4)=   0.000000  celldm(5)=   0.000000  celldm(6)=   0.000000

     crystal axes: (cart. coord. in units of alat)
               a(1) = (  -0.500000   0.000000   0.500000 )  
               a(2) = (   0.000000   0.500000   0.500000 )  
               a(3) = (  -0.500000   0.500000   0.000000 )  

     reciprocal axes: (cart. coord. in units 2 pi/alat)
               b(1) = ( -1.000000 -1.000000  1.000000 )  
               b(2) = (  1.000000  1.000000  1.000000 )  
               b(3) = ( -1.000000  1.000000 -1.000000 )  


     PseudoPot. # 1 for Si read from file:
     ././Si.UPF
     MD5 check sum: c39c59da582df4a0d9f10159256ea34e
     Pseudo is Projector augmented-wave + core cor, Zval =  4.0
     Generated using &quot;atomic&quot; code by A. Dal Corso  v.6.3
     Shape of augmentation charge: PSQ
     Using radial grid of 1141 points,  6 beta functions with: 
                l(1) =   0
                l(2) =   0
                l(3) =   1
                l(4) =   1
                l(5) =   2
                l(6) =   2
     Q(r) pseudized with 0 coefficients 


     atomic species   valence    mass     pseudopotential
        Si             4.00    28.08600     Si( 1.00)

     48 Sym. Ops., with inversion, found (24 have fractional translation)



   Cartesian axes

     site n.     atom                  positions (alat units)
         1           Si  tau(   1) = (   0.0000000   0.0000000   0.0000000  )
         2           Si  tau(   2) = (   0.2500000   0.2500000   0.2500000  )

     number of k points=    28
                       cart. coord. in units 2pi/alat
        k(    1) = (  -0.0833333   0.0833333   0.0833333), wk =   0.0185185
        k(    2) = (  -0.2500000   0.2500000  -0.0833333), wk =   0.0555556
        k(    3) = (  -0.4166667   0.4166667  -0.2500000), wk =   0.0555556
        k(    4) = (   0.4166667  -0.4166667   0.5833333), wk =   0.0555556
        k(    5) = (   0.2500000  -0.2500000   0.4166667), wk =   0.0555556
        k(    6) = (   0.0833333  -0.0833333   0.2500000), wk =   0.0555556
        k(    7) = (  -0.0833333   0.4166667   0.0833333), wk =   0.0555556
        k(    8) = (  -0.2500000   0.5833333  -0.0833333), wk =   0.1111111
        k(    9) = (   0.5833333  -0.2500000   0.7500000), wk =   0.1111111
        k(   10) = (   0.4166667  -0.0833333   0.5833333), wk =   0.1111111
        k(   11) = (   0.2500000   0.0833333   0.4166667), wk =   0.1111111
        k(   12) = (  -0.0833333   0.7500000   0.0833333), wk =   0.0555556
        k(   13) = (   0.7500000  -0.0833333   0.9166667), wk =   0.1111111
        k(   14) = (   0.5833333   0.0833333   0.7500000), wk =   0.1111111
        k(   15) = (   0.4166667   0.2500000   0.5833333), wk =   0.1111111
        k(   16) = (  -0.0833333  -0.9166667   0.0833333), wk =   0.0555556
        k(   17) = (  -0.2500000  -0.7500000  -0.0833333), wk =   0.1111111
        k(   18) = (  -0.0833333  -0.5833333   0.0833333), wk =   0.0555556
        k(   19) = (  -0.2500000   0.2500000   0.2500000), wk =   0.0185185
        k(   20) = (  -0.4166667   0.4166667   0.0833333), wk =   0.0555556
        k(   21) = (   0.4166667  -0.4166667   0.9166667), wk =   0.0555556
        k(   22) = (   0.2500000  -0.2500000   0.7500000), wk =   0.0555556
        k(   23) = (  -0.2500000   0.5833333   0.2500000), wk =   0.0555556
        k(   24) = (   0.5833333  -0.2500000   1.0833333), wk =   0.1111111
        k(   25) = (   0.4166667  -0.0833333   0.9166667), wk =   0.1111111
        k(   26) = (  -0.2500000  -1.0833333   0.2500000), wk =   0.0555556
        k(   27) = (  -0.4166667   0.4166667   0.4166667), wk =   0.0185185
        k(   28) = (   0.4166667  -0.4166667   1.2500000), wk =   0.0555556

     Dense  grid:     7799 G-vectors     FFT dimensions: (  32,  32,  32)

     Estimated max dynamical RAM per process >      31.08 MB

     Check: negative core charge=   -0.000003

     Initial potential from superposition of free atoms

     starting charge    7.99888, renormalised to    8.00000
     Starting wfcs are    8 randomized atomic wfcs
     Checking if some PAW data can be deallocated... 

     total cpu time spent up to now is        0.6 secs

     Self-consistent Calculation

     iteration #  1     ecut=    35.00 Ry     beta= 0.60
     Davidson diagonalization with overlap
     ethr =  1.00E-02,  avg # of iterations =  2.0

     Threshold (ethr) on eigenvalues was too large:
     Diagonalizing with lowered threshold

     Davidson diagonalization with overlap
     ethr =  5.88E-04,  avg # of iterations =  1.6

     total cpu time spent up to now is        1.2 secs

     total energy              =     -93.45176407 Ry
     estimated scf accuracy    <       0.05091549 Ry

     iteration #  2     ecut=    35.00 Ry     beta= 0.60
     Davidson diagonalization with overlap
     ethr =  6.36E-04,  avg # of iterations =  1.0

     total cpu time spent up to now is        1.7 secs

     total energy              =     -93.45240685 Ry
     estimated scf accuracy    <       0.00595280 Ry

     iteration #  3     ecut=    35.00 Ry     beta= 0.60
     Davidson diagonalization with overlap
     ethr =  7.44E-05,  avg # of iterations =  2.1

     total cpu time spent up to now is        2.1 secs

     total energy              =     -93.45324796 Ry
     estimated scf accuracy    <       0.00012794 Ry

     iteration #  4     ecut=    35.00 Ry     beta= 0.60
     Davidson diagonalization with overlap
     ethr =  1.60E-06,  avg # of iterations =  4.6

     total cpu time spent up to now is        2.6 secs

     total energy              =     -93.45337065 Ry
     estimated scf accuracy    <       0.00000966 Ry

     iteration #  5     ecut=    35.00 Ry     beta= 0.60
     Davidson diagonalization with overlap
     ethr =  1.21E-07,  avg # of iterations =  4.0

     total cpu time spent up to now is        3.1 secs

     End of self-consistent calculation

          k =-0.0833 0.0833 0.0833 (   950 PWs)   bands (ev):

    -5.7905   4.9919   5.7140   5.7140

          k =-0.2500 0.2500-0.0833 (   966 PWs)   bands (ev):

    -5.3265   2.9353   4.5112   5.5053

          k =-0.4167 0.4167-0.2500 (   977 PWs)   bands (ev):

    -4.2666   0.2408   4.0491   4.8836

          k = 0.4167-0.4167 0.5833 (   984 PWs)   bands (ev):

    -3.5954  -0.8665   4.1088   4.5142

          k = 0.2500-0.2500 0.4167 (   970 PWs)   bands (ev):

    -4.6653   1.0652   4.5762   4.5957

          k = 0.0833-0.0833 0.2500 (   960 PWs)   bands (ev):

    -5.5562   3.9265   5.0877   5.2584

          k =-0.0833 0.4167 0.0833 (   978 PWs)   bands (ev):

    -5.0916   2.7298   4.3541   4.3769

          k =-0.2500 0.5833-0.0833 (   982 PWs)   bands (ev):

    -4.2065   0.9265   3.0764   3.9980

          k = 0.5833-0.2500 0.7500 (   974 PWs)   bands (ev):

    -3.1295  -0.7645   2.4815   3.7796

          k = 0.4167-0.0833 0.5833 (   981 PWs)   bands (ev):

    -3.8249   0.2556   2.4512   4.2496

          k = 0.2500 0.0833 0.4167 (   968 PWs)   bands (ev):

    -4.8726   1.9221   3.7539   4.8947

          k =-0.0833 0.7500 0.0833 (   987 PWs)   bands (ev):

    -3.5129   0.1026   3.0462   3.3727

          k = 0.7500-0.0833 0.9167 (   979 PWs)   bands (ev):

    -2.3525  -1.2061   2.2345   2.9819

          k = 0.5833 0.0833 0.7500 (   978 PWs)   bands (ev):

    -2.7203  -0.8657   1.7625   3.5115

          k = 0.4167 0.2500 0.5833 (   981 PWs)   bands (ev):

    -3.7193  -0.3896   3.3521   4.3433

          k =-0.0833-0.9167 0.0833 (   979 PWs)   bands (ev):

    -2.4383  -1.2123   2.7843   3.1623

          k =-0.2500-0.7500-0.0833 (   984 PWs)   bands (ev):

    -3.3508  -0.1126   2.5415   3.3135

          k =-0.0833-0.5833 0.0833 (   982 PWs)   bands (ev):

    -4.4054   1.4418   3.5735   3.7851

          k =-0.2500 0.2500 0.2500 (   962 PWs)   bands (ev):

    -5.1034   1.9844   5.1143   5.1143

          k =-0.4167 0.4167 0.0833 (   975 PWs)   bands (ev):

    -4.4434   1.0528   3.0405   4.9470

          k = 0.4167-0.4167 0.9167 (   986 PWs)   bands (ev):

    -3.3013  -0.3646   1.9686   4.1838

          k = 0.2500-0.2500 0.7500 (   977 PWs)   bands (ev):

    -3.2490  -0.4427   2.4289   3.7160

          k =-0.2500 0.5833 0.2500 (   986 PWs)   bands (ev):

    -4.0321   0.2691   3.4788   4.0796

          k = 0.5833-0.2500 1.0833 (   981 PWs)   bands (ev):

    -3.0599  -0.4862   2.0677   3.3142

          k = 0.4167-0.0833 0.9167 (   981 PWs)   bands (ev):

    -2.2535  -1.2137   1.9165   2.6687

          k =-0.2500-1.0833 0.2500 (   981 PWs)   bands (ev):

    -2.4593  -1.1141   1.7935   3.5264

          k =-0.4167 0.4167 0.4167 (   972 PWs)   bands (ev):

    -3.9501  -0.4777   4.7324   4.7324

          k = 0.4167-0.4167 1.2500 (   977 PWs)   bands (ev):

    -3.3654  -0.7812   2.9394   4.3065

     highest occupied level (ev):     5.7140

!    total energy              =     -93.45337614 Ry

     total all-electron energy =     -1160.145106 Ry
     estimated scf accuracy    <       0.00000034 Ry

     The total energy is the sum of the following terms:
     one-electron contribution =       5.47129716 Ry
     hartree contribution      =       1.13065696 Ry
     xc contribution           =     -12.26730399 Ry
     ewald contribution        =     -16.60669919 Ry
     one-center paw contrib.   =     -71.18132708 Ry

     convergence has been achieved in   5 iterations

     Writing output data file ././silicon.save/

     init_run     :      0.63s CPU      0.53s WALL (       1 calls)
     electrons    :      3.84s CPU      2.52s WALL (       1 calls)

     Called by init_run:
     wfcinit      :      0.17s CPU      0.10s WALL (       1 calls)
     potinit      :      0.22s CPU      0.23s WALL (       1 calls)
     hinit0       :      0.21s CPU      0.17s WALL (       1 calls)

     Called by electrons:
     c_bands      :      1.77s CPU      1.03s WALL (       6 calls)
     sum_band     :      0.60s CPU      0.27s WALL (       6 calls)
     v_of_rho     :      0.09s CPU      0.06s WALL (       6 calls)
     newd         :      0.07s CPU      0.05s WALL (       6 calls)
     PAW_pot      :      1.52s CPU      1.32s WALL (       6 calls)
     mix_rho      :      0.00s CPU      0.00s WALL (       6 calls)

     Called by c_bands:
     init_us_2    :      0.17s CPU      0.10s WALL (     364 calls)
     cegterg      :      1.16s CPU      0.64s WALL (     168 calls)

     Called by *egterg:
     cdiaghg      :      0.03s CPU      0.01s WALL (     565 calls)
     h_psi        :      1.13s CPU      0.64s WALL (     621 calls)
     s_psi        :      0.03s CPU      0.02s WALL (     621 calls)
     g_psi        :      0.01s CPU      0.01s WALL (     425 calls)

     Called by h_psi:
     h_psi:calbec :      0.08s CPU      0.05s WALL (     621 calls)
     vloc_psi     :      1.00s CPU      0.55s WALL (     621 calls)
     add_vuspsi   :      0.04s CPU      0.02s WALL (     621 calls)

     General routines
     calbec       :      0.09s CPU      0.06s WALL (     789 calls)
     fft          :      0.01s CPU      0.01s WALL (      67 calls)
     ffts         :      0.00s CPU      0.00s WALL (       6 calls)
     fftw         :      0.78s CPU      0.43s WALL (    5042 calls)

     Parallel routines

     PWSCF        :      4.54s CPU      3.13s WALL


   This run was terminated on:  13:53:11  21May2024            

=------------------------------------------------------------------------------=
   JOB DONE.
=------------------------------------------------------------------------------=
