
     Program PWSCF v.6.7MaX starts on 21May2024 at 13:52:56 

     This program is part of the open-source Quantum ESPRESSO suite
     for quantum simulation of materials; please cite
         "P. Giannozzi et al., J. Phys.:Condens. Matter 21 395502 (2009);
         "P. Giannozzi et al., J. Phys.:Condens. Matter 29 465901 (2017);
          URL http://www.quantum-espresso.org", 
     in publications or presentations arising from this work. More details at
     http://www.quantum-espresso.org/quote

     Parallel version (MPI), running on     1 processors

     MPI processes distributed on     1 nodes
     Waiting for input...
     Reading input from standard input

     Current dimensions of program PWSCF are:
     Max number of different atomic species (ntypx) = 10
     Max number of k-points (npk) =  40000
     Max angular momentum in pseudopotentials (lmaxx) =  3
     file Si.UPF: wavefunction(s)  3S 3P renormalized

     Subspace diagonalization in iterative solution of the eigenvalue problem:
     a serial algorithm will be used


     G-vector sticks info
     --------------------
     sticks:   dense  smooth     PW     G-vecs:    dense   smooth      PW
     Sum         223     223     85                 2133     2133     531



     bravais-lattice index     =            2
     lattice parameter (alat)  =      10.3800  a.u.
     unit-cell volume          =     279.5967 (a.u.)^3
     number of atoms/cell      =            2
     number of atomic types    =            1
     number of electrons       =         8.00
     number of Kohn-Sham states=            4
     kinetic-energy cutoff     =      15.0000  Ry
     charge density cutoff     =      60.0000  Ry
     scf convergence threshold =      1.0E-06
     mixing beta               =       0.6000
     number of iterations used =            8  plain     mixing
     Exchange-correlation= SLA  PW   PBX  PBC
                           (   1   4   3   4   0   0   0)

     celldm(1)=  10.380000  celldm(2)=   0.000000  celldm(3)=   0.000000
     celldm(4)=   0.000000  celldm(5)=   0.000000  celldm(6)=   0.000000

     crystal axes: (cart. coord. in units of alat)
               a(1) = (  -0.500000   0.000000   0.500000 )  
               a(2) = (   0.000000   0.500000   0.500000 )  
               a(3) = (  -0.500000   0.500000   0.000000 )  

     reciprocal axes: (cart. coord. in units 2 pi/alat)
               b(1) = ( -1.000000 -1.000000  1.000000 )  
               b(2) = (  1.000000  1.000000  1.000000 )  
               b(3) = ( -1.000000  1.000000 -1.000000 )  


     PseudoPot. # 1 for Si read from file:
     ././Si.UPF
     MD5 check sum: c39c59da582df4a0d9f10159256ea34e
     Pseudo is Projector augmented-wave + core cor, Zval =  4.0
     Generated using &quot;atomic&quot; code by A. Dal Corso  v.6.3
     Shape of augmentation charge: PSQ
     Using radial grid of 1141 points,  6 beta functions with: 
                l(1) =   0
                l(2) =   0
                l(3) =   1
                l(4) =   1
                l(5) =   2
                l(6) =   2
     Q(r) pseudized with 0 coefficients 


     atomic species   valence    mass     pseudopotential
        Si             4.00    28.08600     Si( 1.00)

     48 Sym. Ops., with inversion, found (24 have fractional translation)



   Cartesian axes

     site n.     atom                  positions (alat units)
         1           Si  tau(   1) = (   0.0000000   0.0000000   0.0000000  )
         2           Si  tau(   2) = (   0.2500000   0.2500000   0.2500000  )

     number of k points=    28
                       cart. coord. in units 2pi/alat
        k(    1) = (  -0.0833333   0.0833333   0.0833333), wk =   0.0185185
        k(    2) = (  -0.2500000   0.2500000  -0.0833333), wk =   0.0555556
        k(    3) = (  -0.4166667   0.4166667  -0.2500000), wk =   0.0555556
        k(    4) = (   0.4166667  -0.4166667   0.5833333), wk =   0.0555556
        k(    5) = (   0.2500000  -0.2500000   0.4166667), wk =   0.0555556
        k(    6) = (   0.0833333  -0.0833333   0.2500000), wk =   0.0555556
        k(    7) = (  -0.0833333   0.4166667   0.0833333), wk =   0.0555556
        k(    8) = (  -0.2500000   0.5833333  -0.0833333), wk =   0.1111111
        k(    9) = (   0.5833333  -0.2500000   0.7500000), wk =   0.1111111
        k(   10) = (   0.4166667  -0.0833333   0.5833333), wk =   0.1111111
        k(   11) = (   0.2500000   0.0833333   0.4166667), wk =   0.1111111
        k(   12) = (  -0.0833333   0.7500000   0.0833333), wk =   0.0555556
        k(   13) = (   0.7500000  -0.0833333   0.9166667), wk =   0.1111111
        k(   14) = (   0.5833333   0.0833333   0.7500000), wk =   0.1111111
        k(   15) = (   0.4166667   0.2500000   0.5833333), wk =   0.1111111
        k(   16) = (  -0.0833333  -0.9166667   0.0833333), wk =   0.0555556
        k(   17) = (  -0.2500000  -0.7500000  -0.0833333), wk =   0.1111111
        k(   18) = (  -0.0833333  -0.5833333   0.0833333), wk =   0.0555556
        k(   19) = (  -0.2500000   0.2500000   0.2500000), wk =   0.0185185
        k(   20) = (  -0.4166667   0.4166667   0.0833333), wk =   0.0555556
        k(   21) = (   0.4166667  -0.4166667   0.9166667), wk =   0.0555556
        k(   22) = (   0.2500000  -0.2500000   0.7500000), wk =   0.0555556
        k(   23) = (  -0.2500000   0.5833333   0.2500000), wk =   0.0555556
        k(   24) = (   0.5833333  -0.2500000   1.0833333), wk =   0.1111111
        k(   25) = (   0.4166667  -0.0833333   0.9166667), wk =   0.1111111
        k(   26) = (  -0.2500000  -1.0833333   0.2500000), wk =   0.0555556
        k(   27) = (  -0.4166667   0.4166667   0.4166667), wk =   0.0185185
        k(   28) = (   0.4166667  -0.4166667   1.2500000), wk =   0.0555556

     Dense  grid:     2133 G-vectors     FFT dimensions: (  20,  20,  20)

     Estimated max dynamical RAM per process >       8.81 MB

     Check: negative core charge=   -0.000080

     Initial potential from superposition of free atoms

     starting charge    7.99888, renormalised to    8.00000
     Starting wfcs are    8 randomized atomic wfcs
     Checking if some PAW data can be deallocated... 

     total cpu time spent up to now is        0.5 secs

     Self-consistent Calculation

     iteration #  1     ecut=    15.00 Ry     beta= 0.60
     Davidson diagonalization with overlap
     ethr =  1.00E-02,  avg # of iterations =  2.0

     Threshold (ethr) on eigenvalues was too large:
     Diagonalizing with lowered threshold

     Davidson diagonalization with overlap
     ethr =  5.88E-04,  avg # of iterations =  1.6

     total cpu time spent up to now is        0.8 secs

     total energy              =     -93.44923368 Ry
     estimated scf accuracy    <       0.05077008 Ry

     iteration #  2     ecut=    15.00 Ry     beta= 0.60
     Davidson diagonalization with overlap
     ethr =  6.35E-04,  avg # of iterations =  1.0

     total cpu time spent up to now is        1.1 secs

     total energy              =     -93.44990159 Ry
     estimated scf accuracy    <       0.00586416 Ry

     iteration #  3     ecut=    15.00 Ry     beta= 0.60
     Davidson diagonalization with overlap
     ethr =  7.33E-05,  avg # of iterations =  2.0

     total cpu time spent up to now is        1.4 secs

     total energy              =     -93.45067790 Ry
     estimated scf accuracy    <       0.00012303 Ry

     iteration #  4     ecut=    15.00 Ry     beta= 0.60
     Davidson diagonalization with overlap
     ethr =  1.54E-06,  avg # of iterations =  4.6

     total cpu time spent up to now is        1.7 secs

     total energy              =     -93.45078364 Ry
     estimated scf accuracy    <       0.00000682 Ry

     iteration #  5     ecut=    15.00 Ry     beta= 0.60
     Davidson diagonalization with overlap
     ethr =  8.53E-08,  avg # of iterations =  4.4

     total cpu time spent up to now is        2.0 secs

     End of self-consistent calculation

          k =-0.0833 0.0833 0.0833 (   277 PWs)   bands (ev):

    -5.7797   5.0121   5.7370   5.7370

          k =-0.2500 0.2500-0.0833 (   282 PWs)   bands (ev):

    -5.3162   2.9485   4.5273   5.5252

          k =-0.4167 0.4167-0.2500 (   275 PWs)   bands (ev):

    -4.2565   0.2509   4.0625   4.8975

          k = 0.4167-0.4167 0.5833 (   271 PWs)   bands (ev):

    -3.5855  -0.8572   4.1226   4.5267

          k = 0.2500-0.2500 0.4167 (   279 PWs)   bands (ev):

    -4.6553   1.0762   4.5899   4.6116

          k = 0.0833-0.0833 0.2500 (   281 PWs)   bands (ev):

    -5.5457   3.9414   5.1057   5.2781

          k =-0.0833 0.4167 0.0833 (   286 PWs)   bands (ev):

    -5.0815   2.7425   4.3686   4.3904

          k =-0.2500 0.5833-0.0833 (   275 PWs)   bands (ev):

    -4.1967   0.9370   3.0886   4.0107

          k = 0.5833-0.2500 0.7500 (   271 PWs)   bands (ev):

    -3.1198  -0.7551   2.4935   3.7913

          k = 0.4167-0.0833 0.5833 (   271 PWs)   bands (ev):

    -3.8152   0.2655   2.4633   4.2629

          k = 0.2500 0.0833 0.4167 (   282 PWs)   bands (ev):

    -4.8626   1.9337   3.7674   4.9104

          k =-0.0833 0.7500 0.0833 (   273 PWs)   bands (ev):

    -3.5037   0.1123   3.0566   3.3819

          k = 0.7500-0.0833 0.9167 (   274 PWs)   bands (ev):

    -2.3435  -1.1972   2.2452   2.9917

          k = 0.5833 0.0833 0.7500 (   274 PWs)   bands (ev):

    -2.7108  -0.8565   1.7737   3.5225

          k = 0.4167 0.2500 0.5833 (   273 PWs)   bands (ev):

    -3.7094  -0.3800   3.3651   4.3561

          k =-0.0833-0.9167 0.0833 (   274 PWs)   bands (ev):

    -2.4295  -1.2034   2.7936   3.1704

          k =-0.2500-0.7500-0.0833 (   271 PWs)   bands (ev):

    -3.3415  -0.1032   2.5529   3.3245

          k =-0.0833-0.5833 0.0833 (   278 PWs)   bands (ev):

    -4.3958   1.4528   3.5854   3.7960

          k =-0.2500 0.2500 0.2500 (   280 PWs)   bands (ev):

    -5.0933   1.9964   5.1304   5.1304

          k =-0.4167 0.4167 0.0833 (   274 PWs)   bands (ev):

    -4.4335   1.0637   3.0536   4.9626

          k = 0.4167-0.4167 0.9167 (   273 PWs)   bands (ev):

    -3.2916  -0.3551   1.9800   4.1955

          k = 0.2500-0.2500 0.7500 (   271 PWs)   bands (ev):

    -3.2395  -0.4333   2.4413   3.7260

          k =-0.2500 0.5833 0.2500 (   274 PWs)   bands (ev):

    -4.0223   0.2790   3.4922   4.0917

          k = 0.5833-0.2500 1.0833 (   274 PWs)   bands (ev):

    -3.0505  -0.4770   2.0790   3.3262

          k = 0.4167-0.0833 0.9167 (   269 PWs)   bands (ev):

    -2.2442  -1.2047   1.9277   2.6801

          k =-0.2500-1.0833 0.2500 (   274 PWs)   bands (ev):

    -2.4499  -1.1050   1.8046   3.5357

          k =-0.4167 0.4167 0.4167 (   269 PWs)   bands (ev):

    -3.9400  -0.4680   4.7458   4.7458

          k = 0.4167-0.4167 1.2500 (   266 PWs)   bands (ev):

    -3.3555  -0.7717   2.9522   4.3191

     highest occupied level (ev):     5.7370

!    total energy              =     -93.45078770 Ry

     total all-electron energy =     -1160.142518 Ry
     estimated scf accuracy    <       0.00000027 Ry

     The total energy is the sum of the following terms:
     one-electron contribution =       5.47348804 Ry
     hartree contribution      =       1.13119411 Ry
     xc contribution           =     -12.27075419 Ry
     ewald contribution        =     -16.60669957 Ry
     one-center paw contrib.   =     -71.17801609 Ry

     convergence has been achieved in   5 iterations

     Writing output data file ././silicon.save/

     init_run     :      0.43s CPU      0.39s WALL (       1 calls)
     electrons    :      2.08s CPU      1.52s WALL (       1 calls)

     Called by init_run:
     wfcinit      :      0.04s CPU      0.03s WALL (       1 calls)
     potinit      :      0.22s CPU      0.22s WALL (       1 calls)
     hinit0       :      0.17s CPU      0.13s WALL (       1 calls)

     Called by electrons:
     c_bands      :      0.54s CPU      0.30s WALL (       6 calls)
     sum_band     :      0.12s CPU      0.07s WALL (       6 calls)
     v_of_rho     :      0.03s CPU      0.01s WALL (       6 calls)
     newd         :      0.02s CPU      0.01s WALL (       6 calls)
     PAW_pot      :      1.59s CPU      1.34s WALL (       6 calls)
     mix_rho      :      0.00s CPU      0.00s WALL (       6 calls)

     Called by c_bands:
     init_us_2    :      0.05s CPU      0.03s WALL (     364 calls)
     cegterg      :      0.34s CPU      0.18s WALL (     168 calls)

     Called by *egterg:
     cdiaghg      :      0.02s CPU      0.01s WALL (     576 calls)
     h_psi        :      0.29s CPU      0.16s WALL (     632 calls)
     s_psi        :      0.01s CPU      0.01s WALL (     632 calls)
     g_psi        :      0.00s CPU      0.00s WALL (     436 calls)

     Called by h_psi:
     h_psi:calbec :      0.02s CPU      0.01s WALL (     632 calls)
     vloc_psi     :      0.25s CPU      0.13s WALL (     632 calls)
     add_vuspsi   :      0.02s CPU      0.01s WALL (     632 calls)

     General routines
     calbec       :      0.02s CPU      0.02s WALL (     800 calls)
     fft          :      0.00s CPU      0.00s WALL (      67 calls)
     ffts         :      0.00s CPU      0.00s WALL (       6 calls)
     fftw         :      0.18s CPU      0.10s WALL (    5068 calls)

     Parallel routines

     PWSCF        :      2.58s CPU      1.98s WALL


   This run was terminated on:  13:52:58  21May2024            

=------------------------------------------------------------------------------=
   JOB DONE.
=------------------------------------------------------------------------------=
