
     Program PWSCF v.6.7MaX starts on 21May2024 at 13:52:54 

     This program is part of the open-source Quantum ESPRESSO suite
     for quantum simulation of materials; please cite
         "P. Giannozzi et al., J. Phys.:Condens. Matter 21 395502 (2009);
         "P. Giannozzi et al., J. Phys.:Condens. Matter 29 465901 (2017);
          URL http://www.quantum-espresso.org", 
     in publications or presentations arising from this work. More details at
     http://www.quantum-espresso.org/quote

     Parallel version (MPI), running on     1 processors

     MPI processes distributed on     1 nodes
     Waiting for input...
     Reading input from standard input

     Current dimensions of program PWSCF are:
     Max number of different atomic species (ntypx) = 10
     Max number of k-points (npk) =  40000
     Max angular momentum in pseudopotentials (lmaxx) =  3
     file Si.UPF: wavefunction(s)  3S 3P renormalized

     Subspace diagonalization in iterative solution of the eigenvalue problem:
     a serial algorithm will be used


     G-vector sticks info
     --------------------
     sticks:   dense  smooth     PW     G-vecs:    dense   smooth      PW
     Sum         151     151     61                 1243     1243     307



     bravais-lattice index     =            2
     lattice parameter (alat)  =      10.3800  a.u.
     unit-cell volume          =     279.5967 (a.u.)^3
     number of atoms/cell      =            2
     number of atomic types    =            1
     number of electrons       =         8.00
     number of Kohn-Sham states=            4
     kinetic-energy cutoff     =      10.0000  Ry
     charge density cutoff     =      40.0000  Ry
     scf convergence threshold =      1.0E-06
     mixing beta               =       0.6000
     number of iterations used =            8  plain     mixing
     Exchange-correlation= SLA  PW   PBX  PBC
                           (   1   4   3   4   0   0   0)

     celldm(1)=  10.380000  celldm(2)=   0.000000  celldm(3)=   0.000000
     celldm(4)=   0.000000  celldm(5)=   0.000000  celldm(6)=   0.000000

     crystal axes: (cart. coord. in units of alat)
               a(1) = (  -0.500000   0.000000   0.500000 )  
               a(2) = (   0.000000   0.500000   0.500000 )  
               a(3) = (  -0.500000   0.500000   0.000000 )  

     reciprocal axes: (cart. coord. in units 2 pi/alat)
               b(1) = ( -1.000000 -1.000000  1.000000 )  
               b(2) = (  1.000000  1.000000  1.000000 )  
               b(3) = ( -1.000000  1.000000 -1.000000 )  


     PseudoPot. # 1 for Si read from file:
     ././Si.UPF
     MD5 check sum: c39c59da582df4a0d9f10159256ea34e
     Pseudo is Projector augmented-wave + core cor, Zval =  4.0
     Generated using &quot;atomic&quot; code by A. Dal Corso  v.6.3
     Shape of augmentation charge: PSQ
     Using radial grid of 1141 points,  6 beta functions with: 
                l(1) =   0
                l(2) =   0
                l(3) =   1
                l(4) =   1
                l(5) =   2
                l(6) =   2
     Q(r) pseudized with 0 coefficients 


     atomic species   valence    mass     pseudopotential
        Si             4.00    28.08600     Si( 1.00)

     48 Sym. Ops., with inversion, found (24 have fractional translation)



   Cartesian axes

     site n.     atom                  positions (alat units)
         1           Si  tau(   1) = (   0.0000000   0.0000000   0.0000000  )
         2           Si  tau(   2) = (   0.2500000   0.2500000   0.2500000  )

     number of k points=    28
                       cart. coord. in units 2pi/alat
        k(    1) = (  -0.0833333   0.0833333   0.0833333), wk =   0.0185185
        k(    2) = (  -0.2500000   0.2500000  -0.0833333), wk =   0.0555556
        k(    3) = (  -0.4166667   0.4166667  -0.2500000), wk =   0.0555556
        k(    4) = (   0.4166667  -0.4166667   0.5833333), wk =   0.0555556
        k(    5) = (   0.2500000  -0.2500000   0.4166667), wk =   0.0555556
        k(    6) = (   0.0833333  -0.0833333   0.2500000), wk =   0.0555556
        k(    7) = (  -0.0833333   0.4166667   0.0833333), wk =   0.0555556
        k(    8) = (  -0.2500000   0.5833333  -0.0833333), wk =   0.1111111
        k(    9) = (   0.5833333  -0.2500000   0.7500000), wk =   0.1111111
        k(   10) = (   0.4166667  -0.0833333   0.5833333), wk =   0.1111111
        k(   11) = (   0.2500000   0.0833333   0.4166667), wk =   0.1111111
        k(   12) = (  -0.0833333   0.7500000   0.0833333), wk =   0.0555556
        k(   13) = (   0.7500000  -0.0833333   0.9166667), wk =   0.1111111
        k(   14) = (   0.5833333   0.0833333   0.7500000), wk =   0.1111111
        k(   15) = (   0.4166667   0.2500000   0.5833333), wk =   0.1111111
        k(   16) = (  -0.0833333  -0.9166667   0.0833333), wk =   0.0555556
        k(   17) = (  -0.2500000  -0.7500000  -0.0833333), wk =   0.1111111
        k(   18) = (  -0.0833333  -0.5833333   0.0833333), wk =   0.0555556
        k(   19) = (  -0.2500000   0.2500000   0.2500000), wk =   0.0185185
        k(   20) = (  -0.4166667   0.4166667   0.0833333), wk =   0.0555556
        k(   21) = (   0.4166667  -0.4166667   0.9166667), wk =   0.0555556
        k(   22) = (   0.2500000  -0.2500000   0.7500000), wk =   0.0555556
        k(   23) = (  -0.2500000   0.5833333   0.2500000), wk =   0.0555556
        k(   24) = (   0.5833333  -0.2500000   1.0833333), wk =   0.1111111
        k(   25) = (   0.4166667  -0.0833333   0.9166667), wk =   0.1111111
        k(   26) = (  -0.2500000  -1.0833333   0.2500000), wk =   0.0555556
        k(   27) = (  -0.4166667   0.4166667   0.4166667), wk =   0.0185185
        k(   28) = (   0.4166667  -0.4166667   1.2500000), wk =   0.0555556

     Dense  grid:     1243 G-vectors     FFT dimensions: (  16,  16,  16)

     Estimated max dynamical RAM per process >       5.22 MB

     Check: negative core charge=   -0.000160

     Initial potential from superposition of free atoms

     starting charge    7.99888, renormalised to    8.00000
     Starting wfcs are    8 randomized atomic wfcs
     Checking if some PAW data can be deallocated... 

     total cpu time spent up to now is        0.4 secs

     Self-consistent Calculation

     iteration #  1     ecut=    10.00 Ry     beta= 0.60
     Davidson diagonalization with overlap
     ethr =  1.00E-02,  avg # of iterations =  2.0

     Threshold (ethr) on eigenvalues was too large:
     Diagonalizing with lowered threshold

     Davidson diagonalization with overlap
     ethr =  5.96E-04,  avg # of iterations =  1.2

     total cpu time spent up to now is        0.7 secs

     total energy              =     -93.44939995 Ry
     estimated scf accuracy    <       0.05050071 Ry

     iteration #  2     ecut=    10.00 Ry     beta= 0.60
     Davidson diagonalization with overlap
     ethr =  6.31E-04,  avg # of iterations =  1.0

     total cpu time spent up to now is        0.9 secs

     total energy              =     -93.44971151 Ry
     estimated scf accuracy    <       0.00591087 Ry

     iteration #  3     ecut=    10.00 Ry     beta= 0.60
     Davidson diagonalization with overlap
     ethr =  7.39E-05,  avg # of iterations =  1.9

     total cpu time spent up to now is        1.2 secs

     total energy              =     -93.45024281 Ry
     estimated scf accuracy    <       0.00009345 Ry

     iteration #  4     ecut=    10.00 Ry     beta= 0.60
     Davidson diagonalization with overlap
     ethr =  1.17E-06,  avg # of iterations =  4.8

     total cpu time spent up to now is        1.5 secs

     total energy              =     -93.45033929 Ry
     estimated scf accuracy    <       0.00000116 Ry

     iteration #  5     ecut=    10.00 Ry     beta= 0.60
     Davidson diagonalization with overlap
     ethr =  1.45E-08,  avg # of iterations =  5.5

     total cpu time spent up to now is        1.8 secs

     End of self-consistent calculation

          k =-0.0833 0.0833 0.0833 (   153 PWs)   bands (ev):

    -5.7696   5.0459   5.7714   5.7714

          k =-0.2500 0.2500-0.0833 (   151 PWs)   bands (ev):

    -5.3059   2.9775   4.5565   5.5524

          k =-0.4167 0.4167-0.2500 (   151 PWs)   bands (ev):

    -4.2475   0.2706   4.0872   4.9160

          k = 0.4167-0.4167 0.5833 (   153 PWs)   bands (ev):

    -3.5764  -0.8409   4.1462   4.5446

          k = 0.2500-0.2500 0.4167 (   150 PWs)   bands (ev):

    -4.6455   1.0976   4.6123   4.6382

          k = 0.0833-0.0833 0.2500 (   155 PWs)   bands (ev):

    -5.5360   3.9726   5.1341   5.3079

          k =-0.0833 0.4167 0.0833 (   150 PWs)   bands (ev):

    -5.0705   2.7706   4.3951   4.4165

          k =-0.2500 0.5833-0.0833 (   148 PWs)   bands (ev):

    -4.1855   0.9579   3.1148   4.0323

          k = 0.5833-0.2500 0.7500 (   147 PWs)   bands (ev):

    -3.1071  -0.7370   2.5214   3.8116

          k = 0.4167-0.0833 0.5833 (   149 PWs)   bands (ev):

    -3.8040   0.2850   2.4896   4.2847

          k = 0.2500 0.0833 0.4167 (   149 PWs)   bands (ev):

    -4.8519   1.9595   3.7939   4.9351

          k =-0.0833 0.7500 0.0833 (   149 PWs)   bands (ev):

    -3.4907   0.1311   3.0754   3.3952

          k = 0.7500-0.0833 0.9167 (   149 PWs)   bands (ev):

    -2.3287  -1.1813   2.2686   3.0091

          k = 0.5833 0.0833 0.7500 (   148 PWs)   bands (ev):

    -2.6979  -0.8396   1.8006   3.5434

          k = 0.4167 0.2500 0.5833 (   151 PWs)   bands (ev):

    -3.7001  -0.3615   3.3917   4.3758

          k =-0.0833-0.9167 0.0833 (   148 PWs)   bands (ev):

    -2.4144  -1.1860   2.8105   3.1810

          k =-0.2500-0.7500-0.0833 (   147 PWs)   bands (ev):

    -3.3284  -0.0849   2.5779   3.3437

          k =-0.0833-0.5833 0.0833 (   149 PWs)   bands (ev):

    -4.3839   1.4762   3.6090   3.8144

          k =-0.2500 0.2500 0.2500 (   150 PWs)   bands (ev):

    -5.0833   2.0214   5.1561   5.1561

          k =-0.4167 0.4167 0.0833 (   149 PWs)   bands (ev):

    -4.4229   1.0860   3.0800   4.9838

          k = 0.4167-0.4167 0.9167 (   149 PWs)   bands (ev):

    -3.2795  -0.3364   2.0074   4.2140

          k = 0.2500-0.2500 0.7500 (   149 PWs)   bands (ev):

    -3.2285  -0.4149   2.4684   3.7416

          k =-0.2500 0.5833 0.2500 (   148 PWs)   bands (ev):

    -4.0117   0.2988   3.5196   4.1102

          k = 0.5833-0.2500 1.0833 (   151 PWs)   bands (ev):

    -3.0386  -0.4624   2.1051   3.3497

          k = 0.4167-0.0833 0.9167 (   150 PWs)   bands (ev):

    -2.2320  -1.1889   1.9534   2.7028

          k =-0.2500-1.0833 0.2500 (   144 PWs)   bands (ev):

    -2.4336  -1.0877   1.8309   3.5509

          k =-0.4167 0.4167 0.4167 (   147 PWs)   bands (ev):

    -3.9303  -0.4486   4.7650   4.7650

          k = 0.4167-0.4167 1.2500 (   152 PWs)   bands (ev):

    -3.3458  -0.7544   2.9789   4.3345

     highest occupied level (ev):     5.7714

!    total energy              =     -93.45034209 Ry

     total all-electron energy =     -1160.142072 Ry
     estimated scf accuracy    <       0.00000029 Ry

     The total energy is the sum of the following terms:
     one-electron contribution =       5.48178846 Ry
     hartree contribution      =       1.13312255 Ry
     xc contribution           =     -12.28068068 Ry
     ewald contribution        =     -16.60669918 Ry
     one-center paw contrib.   =     -71.17787325 Ry

     convergence has been achieved in   5 iterations

     Writing output data file ././silicon.save/

     init_run     :      0.34s CPU      0.36s WALL (       1 calls)
     electrons    :      1.60s CPU      1.37s WALL (       1 calls)

     Called by init_run:
     wfcinit      :      0.02s CPU      0.01s WALL (       1 calls)
     potinit      :      0.19s CPU      0.21s WALL (       1 calls)
     hinit0       :      0.14s CPU      0.10s WALL (       1 calls)

     Called by electrons:
     c_bands      :      0.25s CPU      0.17s WALL (       6 calls)
     sum_band     :      0.06s CPU      0.04s WALL (       6 calls)
     v_of_rho     :      0.01s CPU      0.01s WALL (       6 calls)
     newd         :      0.00s CPU      0.03s WALL (       6 calls)
     PAW_pot      :      1.46s CPU      1.35s WALL (       6 calls)
     mix_rho      :      0.00s CPU      0.00s WALL (       6 calls)

     Called by c_bands:
     init_us_2    :      0.02s CPU      0.01s WALL (     364 calls)
     cegterg      :      0.17s CPU      0.12s WALL (     168 calls)

     Called by *egterg:
     cdiaghg      :      0.02s CPU      0.01s WALL (     597 calls)
     h_psi        :      0.13s CPU      0.09s WALL (     653 calls)
     s_psi        :      0.01s CPU      0.01s WALL (     653 calls)
     g_psi        :      0.00s CPU      0.00s WALL (     457 calls)

     Called by h_psi:
     h_psi:calbec :      0.01s CPU      0.01s WALL (     653 calls)
     vloc_psi     :      0.11s CPU      0.08s WALL (     653 calls)
     add_vuspsi   :      0.01s CPU      0.01s WALL (     653 calls)

     General routines
     calbec       :      0.01s CPU      0.01s WALL (     821 calls)
     fft          :      0.00s CPU      0.00s WALL (      67 calls)
     ffts         :      0.00s CPU      0.00s WALL (       6 calls)
     fftw         :      0.08s CPU      0.06s WALL (    5208 calls)

     Parallel routines

     PWSCF        :      2.01s CPU      1.79s WALL


   This run was terminated on:  13:52:56  21May2024            

=------------------------------------------------------------------------------=
   JOB DONE.
=------------------------------------------------------------------------------=
