
     Program PWSCF v.6.7MaX starts on 21May2024 at 13:53:11 

     This program is part of the open-source Quantum ESPRESSO suite
     for quantum simulation of materials; please cite
         "P. Giannozzi et al., J. Phys.:Condens. Matter 21 395502 (2009);
         "P. Giannozzi et al., J. Phys.:Condens. Matter 29 465901 (2017);
          URL http://www.quantum-espresso.org", 
     in publications or presentations arising from this work. More details at
     http://www.quantum-espresso.org/quote

     Parallel version (MPI), running on     1 processors

     MPI processes distributed on     1 nodes
     Waiting for input...
     Reading input from standard input

     Current dimensions of program PWSCF are:
     Max number of different atomic species (ntypx) = 10
     Max number of k-points (npk) =  40000
     Max angular momentum in pseudopotentials (lmaxx) =  3
     file Si.UPF: wavefunction(s)  3S 3P renormalized

     Subspace diagonalization in iterative solution of the eigenvalue problem:
     a serial algorithm will be used


     G-vector sticks info
     --------------------
     sticks:   dense  smooth     PW     G-vecs:    dense   smooth      PW
     Sum         595     595    199                 9577     9577    1759



     bravais-lattice index     =            2
     lattice parameter (alat)  =      10.3800  a.u.
     unit-cell volume          =     279.5967 (a.u.)^3
     number of atoms/cell      =            2
     number of atomic types    =            1
     number of electrons       =         8.00
     number of Kohn-Sham states=            4
     kinetic-energy cutoff     =      40.0000  Ry
     charge density cutoff     =     160.0000  Ry
     scf convergence threshold =      1.0E-06
     mixing beta               =       0.6000
     number of iterations used =            8  plain     mixing
     Exchange-correlation= SLA  PW   PBX  PBC
                           (   1   4   3   4   0   0   0)

     celldm(1)=  10.380000  celldm(2)=   0.000000  celldm(3)=   0.000000
     celldm(4)=   0.000000  celldm(5)=   0.000000  celldm(6)=   0.000000

     crystal axes: (cart. coord. in units of alat)
               a(1) = (  -0.500000   0.000000   0.500000 )  
               a(2) = (   0.000000   0.500000   0.500000 )  
               a(3) = (  -0.500000   0.500000   0.000000 )  

     reciprocal axes: (cart. coord. in units 2 pi/alat)
               b(1) = ( -1.000000 -1.000000  1.000000 )  
               b(2) = (  1.000000  1.000000  1.000000 )  
               b(3) = ( -1.000000  1.000000 -1.000000 )  


     PseudoPot. # 1 for Si read from file:
     ././Si.UPF
     MD5 check sum: c39c59da582df4a0d9f10159256ea34e
     Pseudo is Projector augmented-wave + core cor, Zval =  4.0
     Generated using &quot;atomic&quot; code by A. Dal Corso  v.6.3
     Shape of augmentation charge: PSQ
     Using radial grid of 1141 points,  6 beta functions with: 
                l(1) =   0
                l(2) =   0
                l(3) =   1
                l(4) =   1
                l(5) =   2
                l(6) =   2
     Q(r) pseudized with 0 coefficients 


     atomic species   valence    mass     pseudopotential
        Si             4.00    28.08600     Si( 1.00)

     48 Sym. Ops., with inversion, found (24 have fractional translation)



   Cartesian axes

     site n.     atom                  positions (alat units)
         1           Si  tau(   1) = (   0.0000000   0.0000000   0.0000000  )
         2           Si  tau(   2) = (   0.2500000   0.2500000   0.2500000  )

     number of k points=    28
                       cart. coord. in units 2pi/alat
        k(    1) = (  -0.0833333   0.0833333   0.0833333), wk =   0.0185185
        k(    2) = (  -0.2500000   0.2500000  -0.0833333), wk =   0.0555556
        k(    3) = (  -0.4166667   0.4166667  -0.2500000), wk =   0.0555556
        k(    4) = (   0.4166667  -0.4166667   0.5833333), wk =   0.0555556
        k(    5) = (   0.2500000  -0.2500000   0.4166667), wk =   0.0555556
        k(    6) = (   0.0833333  -0.0833333   0.2500000), wk =   0.0555556
        k(    7) = (  -0.0833333   0.4166667   0.0833333), wk =   0.0555556
        k(    8) = (  -0.2500000   0.5833333  -0.0833333), wk =   0.1111111
        k(    9) = (   0.5833333  -0.2500000   0.7500000), wk =   0.1111111
        k(   10) = (   0.4166667  -0.0833333   0.5833333), wk =   0.1111111
        k(   11) = (   0.2500000   0.0833333   0.4166667), wk =   0.1111111
        k(   12) = (  -0.0833333   0.7500000   0.0833333), wk =   0.0555556
        k(   13) = (   0.7500000  -0.0833333   0.9166667), wk =   0.1111111
        k(   14) = (   0.5833333   0.0833333   0.7500000), wk =   0.1111111
        k(   15) = (   0.4166667   0.2500000   0.5833333), wk =   0.1111111
        k(   16) = (  -0.0833333  -0.9166667   0.0833333), wk =   0.0555556
        k(   17) = (  -0.2500000  -0.7500000  -0.0833333), wk =   0.1111111
        k(   18) = (  -0.0833333  -0.5833333   0.0833333), wk =   0.0555556
        k(   19) = (  -0.2500000   0.2500000   0.2500000), wk =   0.0185185
        k(   20) = (  -0.4166667   0.4166667   0.0833333), wk =   0.0555556
        k(   21) = (   0.4166667  -0.4166667   0.9166667), wk =   0.0555556
        k(   22) = (   0.2500000  -0.2500000   0.7500000), wk =   0.0555556
        k(   23) = (  -0.2500000   0.5833333   0.2500000), wk =   0.0555556
        k(   24) = (   0.5833333  -0.2500000   1.0833333), wk =   0.1111111
        k(   25) = (   0.4166667  -0.0833333   0.9166667), wk =   0.1111111
        k(   26) = (  -0.2500000  -1.0833333   0.2500000), wk =   0.0555556
        k(   27) = (  -0.4166667   0.4166667   0.4166667), wk =   0.0185185
        k(   28) = (   0.4166667  -0.4166667   1.2500000), wk =   0.0555556

     Dense  grid:     9577 G-vectors     FFT dimensions: (  32,  32,  32)

     Estimated max dynamical RAM per process >      37.49 MB

     Check: negative core charge=   -0.000003

     Initial potential from superposition of free atoms

     starting charge    7.99888, renormalised to    8.00000
     Starting wfcs are    8 randomized atomic wfcs
     Checking if some PAW data can be deallocated... 

     total cpu time spent up to now is        0.6 secs

     Self-consistent Calculation

     iteration #  1     ecut=    40.00 Ry     beta= 0.60
     Davidson diagonalization with overlap
     ethr =  1.00E-02,  avg # of iterations =  2.0

     Threshold (ethr) on eigenvalues was too large:
     Diagonalizing with lowered threshold

     Davidson diagonalization with overlap
     ethr =  5.87E-04,  avg # of iterations =  1.6

     total cpu time spent up to now is        1.3 secs

     total energy              =     -93.45185228 Ry
     estimated scf accuracy    <       0.05085663 Ry

     iteration #  2     ecut=    40.00 Ry     beta= 0.60
     Davidson diagonalization with overlap
     ethr =  6.36E-04,  avg # of iterations =  1.0

     total cpu time spent up to now is        1.8 secs

     total energy              =     -93.45247296 Ry
     estimated scf accuracy    <       0.00596232 Ry

     iteration #  3     ecut=    40.00 Ry     beta= 0.60
     Davidson diagonalization with overlap
     ethr =  7.45E-05,  avg # of iterations =  2.1

     total cpu time spent up to now is        2.2 secs

     total energy              =     -93.45331854 Ry
     estimated scf accuracy    <       0.00013014 Ry

     iteration #  4     ecut=    40.00 Ry     beta= 0.60
     Davidson diagonalization with overlap
     ethr =  1.63E-06,  avg # of iterations =  4.7

     total cpu time spent up to now is        2.8 secs

     total energy              =     -93.45343279 Ry
     estimated scf accuracy    <       0.00001260 Ry

     iteration #  5     ecut=    40.00 Ry     beta= 0.60
     Davidson diagonalization with overlap
     ethr =  1.57E-07,  avg # of iterations =  3.9

     total cpu time spent up to now is        3.3 secs

     End of self-consistent calculation

          k =-0.0833 0.0833 0.0833 (  1218 PWs)   bands (ev):

    -5.7908   4.9918   5.7139   5.7139

          k =-0.2500 0.2500-0.0833 (  1204 PWs)   bands (ev):

    -5.3268   2.9352   4.5111   5.5052

          k =-0.4167 0.4167-0.2500 (  1190 PWs)   bands (ev):

    -4.2668   0.2407   4.0490   4.8835

          k = 0.4167-0.4167 0.5833 (  1192 PWs)   bands (ev):

    -3.5957  -0.8667   4.1088   4.5141

          k = 0.2500-0.2500 0.4167 (  1197 PWs)   bands (ev):

    -4.6656   1.0650   4.5761   4.5956

          k = 0.0833-0.0833 0.2500 (  1207 PWs)   bands (ev):

    -5.5565   3.9264   5.0877   5.2583

          k =-0.0833 0.4167 0.0833 (  1202 PWs)   bands (ev):

    -5.0918   2.7297   4.3540   4.3768

          k =-0.2500 0.5833-0.0833 (  1199 PWs)   bands (ev):

    -4.2067   0.9263   3.0763   3.9979

          k = 0.5833-0.2500 0.7500 (  1192 PWs)   bands (ev):

    -3.1298  -0.7646   2.4814   3.7796

          k = 0.4167-0.0833 0.5833 (  1192 PWs)   bands (ev):

    -3.8251   0.2554   2.4511   4.2495

          k = 0.2500 0.0833 0.4167 (  1202 PWs)   bands (ev):

    -4.8728   1.9220   3.7538   4.8947

          k =-0.0833 0.7500 0.0833 (  1202 PWs)   bands (ev):

    -3.5131   0.1024   3.0461   3.3726

          k = 0.7500-0.0833 0.9167 (  1186 PWs)   bands (ev):

    -2.3527  -1.2063   2.2344   2.9818

          k = 0.5833 0.0833 0.7500 (  1185 PWs)   bands (ev):

    -2.7205  -0.8659   1.7625   3.5114

          k = 0.4167 0.2500 0.5833 (  1192 PWs)   bands (ev):

    -3.7195  -0.3897   3.3521   4.3432

          k =-0.0833-0.9167 0.0833 (  1194 PWs)   bands (ev):

    -2.4385  -1.2126   2.7843   3.1622

          k =-0.2500-0.7500-0.0833 (  1195 PWs)   bands (ev):

    -3.3511  -0.1128   2.5414   3.3134

          k =-0.0833-0.5833 0.0833 (  1205 PWs)   bands (ev):

    -4.4057   1.4416   3.5734   3.7850

          k =-0.2500 0.2500 0.2500 (  1197 PWs)   bands (ev):

    -5.1037   1.9843   5.1143   5.1143

          k =-0.4167 0.4167 0.0833 (  1193 PWs)   bands (ev):

    -4.4436   1.0526   3.0404   4.9469

          k = 0.4167-0.4167 0.9167 (  1187 PWs)   bands (ev):

    -3.3015  -0.3648   1.9685   4.1838

          k = 0.2500-0.2500 0.7500 (  1194 PWs)   bands (ev):

    -3.2492  -0.4429   2.4289   3.7160

          k =-0.2500 0.5833 0.2500 (  1193 PWs)   bands (ev):

    -4.0323   0.2689   3.4787   4.0795

          k = 0.5833-0.2500 1.0833 (  1198 PWs)   bands (ev):

    -3.0602  -0.4864   2.0677   3.3141

          k = 0.4167-0.0833 0.9167 (  1191 PWs)   bands (ev):

    -2.2537  -1.2139   1.9164   2.6686

          k =-0.2500-1.0833 0.2500 (  1187 PWs)   bands (ev):

    -2.4595  -1.1143   1.7935   3.5263

          k =-0.4167 0.4167 0.4167 (  1185 PWs)   bands (ev):

    -3.9503  -0.4778   4.7324   4.7324

          k = 0.4167-0.4167 1.2500 (  1192 PWs)   bands (ev):

    -3.3657  -0.7813   2.9393   4.3065

     highest occupied level (ev):     5.7139

!    total energy              =     -93.45343820 Ry

     total all-electron energy =     -1160.145168 Ry
     estimated scf accuracy    <       0.00000036 Ry

     The total energy is the sum of the following terms:
     one-electron contribution =       5.47125512 Ry
     hartree contribution      =       1.13071755 Ry
     xc contribution           =     -12.26739736 Ry
     ewald contribution        =     -16.60669921 Ry
     one-center paw contrib.   =     -71.18131430 Ry

     convergence has been achieved in   5 iterations

     Writing output data file ././silicon.save/

     init_run     :      0.63s CPU      0.52s WALL (       1 calls)
     electrons    :      4.12s CPU      2.73s WALL (       1 calls)

     Called by init_run:
     wfcinit      :      0.17s CPU      0.10s WALL (       1 calls)
     potinit      :      0.20s CPU      0.21s WALL (       1 calls)
     hinit0       :      0.22s CPU      0.18s WALL (       1 calls)

     Called by electrons:
     c_bands      :      1.96s CPU      1.19s WALL (       6 calls)
     sum_band     :      0.68s CPU      0.32s WALL (       6 calls)
     v_of_rho     :      0.10s CPU      0.05s WALL (       6 calls)
     newd         :      0.07s CPU      0.06s WALL (       6 calls)
     PAW_pot      :      1.51s CPU      1.32s WALL (       6 calls)
     mix_rho      :      0.01s CPU      0.00s WALL (       6 calls)

     Called by c_bands:
     init_us_2    :      0.21s CPU      0.12s WALL (     364 calls)
     cegterg      :      1.23s CPU      0.71s WALL (     168 calls)

     Called by *egterg:
     cdiaghg      :      0.03s CPU      0.01s WALL (     566 calls)
     h_psi        :      1.18s CPU      0.67s WALL (     622 calls)
     s_psi        :      0.04s CPU      0.02s WALL (     622 calls)
     g_psi        :      0.02s CPU      0.01s WALL (     426 calls)

     Called by h_psi:
     h_psi:calbec :      0.07s CPU      0.05s WALL (     622 calls)
     vloc_psi     :      1.05s CPU      0.59s WALL (     622 calls)
     add_vuspsi   :      0.05s CPU      0.03s WALL (     622 calls)

     General routines
     calbec       :      0.09s CPU      0.06s WALL (     790 calls)
     fft          :      0.02s CPU      0.01s WALL (      67 calls)
     ffts         :      0.00s CPU      0.00s WALL (       6 calls)
     fftw         :      0.84s CPU      0.47s WALL (    5014 calls)

     Parallel routines

     PWSCF        :      4.82s CPU      3.33s WALL


   This run was terminated on:  13:53:15  21May2024            

=------------------------------------------------------------------------------=
   JOB DONE.
=------------------------------------------------------------------------------=
