
     Program PWSCF v.6.7MaX starts on 21May2024 at 13:53: 1 

     This program is part of the open-source Quantum ESPRESSO suite
     for quantum simulation of materials; please cite
         "P. Giannozzi et al., J. Phys.:Condens. Matter 21 395502 (2009);
         "P. Giannozzi et al., J. Phys.:Condens. Matter 29 465901 (2017);
          URL http://www.quantum-espresso.org", 
     in publications or presentations arising from this work. More details at
     http://www.quantum-espresso.org/quote

     Parallel version (MPI), running on     1 processors

     MPI processes distributed on     1 nodes
     Waiting for input...
     Reading input from standard input

     Current dimensions of program PWSCF are:
     Max number of different atomic species (ntypx) = 10
     Max number of k-points (npk) =  40000
     Max angular momentum in pseudopotentials (lmaxx) =  3
     file Si.UPF: wavefunction(s)  3S 3P renormalized

     Subspace diagonalization in iterative solution of the eigenvalue problem:
     a serial algorithm will be used


     G-vector sticks info
     --------------------
     sticks:   dense  smooth     PW     G-vecs:    dense   smooth      PW
     Sum         367     367    121                 4693     4693     941



     bravais-lattice index     =            2
     lattice parameter (alat)  =      10.3800  a.u.
     unit-cell volume          =     279.5967 (a.u.)^3
     number of atoms/cell      =            2
     number of atomic types    =            1
     number of electrons       =         8.00
     number of Kohn-Sham states=            4
     kinetic-energy cutoff     =      25.0000  Ry
     charge density cutoff     =     100.0000  Ry
     scf convergence threshold =      1.0E-06
     mixing beta               =       0.6000
     number of iterations used =            8  plain     mixing
     Exchange-correlation= SLA  PW   PBX  PBC
                           (   1   4   3   4   0   0   0)

     celldm(1)=  10.380000  celldm(2)=   0.000000  celldm(3)=   0.000000
     celldm(4)=   0.000000  celldm(5)=   0.000000  celldm(6)=   0.000000

     crystal axes: (cart. coord. in units of alat)
               a(1) = (  -0.500000   0.000000   0.500000 )  
               a(2) = (   0.000000   0.500000   0.500000 )  
               a(3) = (  -0.500000   0.500000   0.000000 )  

     reciprocal axes: (cart. coord. in units 2 pi/alat)
               b(1) = ( -1.000000 -1.000000  1.000000 )  
               b(2) = (  1.000000  1.000000  1.000000 )  
               b(3) = ( -1.000000  1.000000 -1.000000 )  


     PseudoPot. # 1 for Si read from file:
     ././Si.UPF
     MD5 check sum: c39c59da582df4a0d9f10159256ea34e
     Pseudo is Projector augmented-wave + core cor, Zval =  4.0
     Generated using &quot;atomic&quot; code by A. Dal Corso  v.6.3
     Shape of augmentation charge: PSQ
     Using radial grid of 1141 points,  6 beta functions with: 
                l(1) =   0
                l(2) =   0
                l(3) =   1
                l(4) =   1
                l(5) =   2
                l(6) =   2
     Q(r) pseudized with 0 coefficients 


     atomic species   valence    mass     pseudopotential
        Si             4.00    28.08600     Si( 1.00)

     48 Sym. Ops., with inversion, found (24 have fractional translation)



   Cartesian axes

     site n.     atom                  positions (alat units)
         1           Si  tau(   1) = (   0.0000000   0.0000000   0.0000000  )
         2           Si  tau(   2) = (   0.2500000   0.2500000   0.2500000  )

     number of k points=    28
                       cart. coord. in units 2pi/alat
        k(    1) = (  -0.0833333   0.0833333   0.0833333), wk =   0.0185185
        k(    2) = (  -0.2500000   0.2500000  -0.0833333), wk =   0.0555556
        k(    3) = (  -0.4166667   0.4166667  -0.2500000), wk =   0.0555556
        k(    4) = (   0.4166667  -0.4166667   0.5833333), wk =   0.0555556
        k(    5) = (   0.2500000  -0.2500000   0.4166667), wk =   0.0555556
        k(    6) = (   0.0833333  -0.0833333   0.2500000), wk =   0.0555556
        k(    7) = (  -0.0833333   0.4166667   0.0833333), wk =   0.0555556
        k(    8) = (  -0.2500000   0.5833333  -0.0833333), wk =   0.1111111
        k(    9) = (   0.5833333  -0.2500000   0.7500000), wk =   0.1111111
        k(   10) = (   0.4166667  -0.0833333   0.5833333), wk =   0.1111111
        k(   11) = (   0.2500000   0.0833333   0.4166667), wk =   0.1111111
        k(   12) = (  -0.0833333   0.7500000   0.0833333), wk =   0.0555556
        k(   13) = (   0.7500000  -0.0833333   0.9166667), wk =   0.1111111
        k(   14) = (   0.5833333   0.0833333   0.7500000), wk =   0.1111111
        k(   15) = (   0.4166667   0.2500000   0.5833333), wk =   0.1111111
        k(   16) = (  -0.0833333  -0.9166667   0.0833333), wk =   0.0555556
        k(   17) = (  -0.2500000  -0.7500000  -0.0833333), wk =   0.1111111
        k(   18) = (  -0.0833333  -0.5833333   0.0833333), wk =   0.0555556
        k(   19) = (  -0.2500000   0.2500000   0.2500000), wk =   0.0185185
        k(   20) = (  -0.4166667   0.4166667   0.0833333), wk =   0.0555556
        k(   21) = (   0.4166667  -0.4166667   0.9166667), wk =   0.0555556
        k(   22) = (   0.2500000  -0.2500000   0.7500000), wk =   0.0555556
        k(   23) = (  -0.2500000   0.5833333   0.2500000), wk =   0.0555556
        k(   24) = (   0.5833333  -0.2500000   1.0833333), wk =   0.1111111
        k(   25) = (   0.4166667  -0.0833333   0.9166667), wk =   0.1111111
        k(   26) = (  -0.2500000  -1.0833333   0.2500000), wk =   0.0555556
        k(   27) = (  -0.4166667   0.4166667   0.4166667), wk =   0.0185185
        k(   28) = (   0.4166667  -0.4166667   1.2500000), wk =   0.0555556

     Dense  grid:     4693 G-vectors     FFT dimensions: (  24,  24,  24)

     Estimated max dynamical RAM per process >      18.54 MB

     Check: negative core charge=   -0.000014

     Initial potential from superposition of free atoms

     starting charge    7.99888, renormalised to    8.00000
     Starting wfcs are    8 randomized atomic wfcs
     Checking if some PAW data can be deallocated... 

     total cpu time spent up to now is        0.5 secs

     Self-consistent Calculation

     iteration #  1     ecut=    25.00 Ry     beta= 0.60
     Davidson diagonalization with overlap
     ethr =  1.00E-02,  avg # of iterations =  2.0

     Threshold (ethr) on eigenvalues was too large:
     Diagonalizing with lowered threshold

     Davidson diagonalization with overlap
     ethr =  5.87E-04,  avg # of iterations =  1.5

     total cpu time spent up to now is        1.0 secs

     total energy              =     -93.45143142 Ry
     estimated scf accuracy    <       0.05102615 Ry

     iteration #  2     ecut=    25.00 Ry     beta= 0.60
     Davidson diagonalization with overlap
     ethr =  6.38E-04,  avg # of iterations =  1.0

     total cpu time spent up to now is        1.4 secs

     total energy              =     -93.45207177 Ry
     estimated scf accuracy    <       0.00595570 Ry

     iteration #  3     ecut=    25.00 Ry     beta= 0.60
     Davidson diagonalization with overlap
     ethr =  7.44E-05,  avg # of iterations =  2.1

     total cpu time spent up to now is        1.8 secs

     total energy              =     -93.45293753 Ry
     estimated scf accuracy    <       0.00013617 Ry

     iteration #  4     ecut=    25.00 Ry     beta= 0.60
     Davidson diagonalization with overlap
     ethr =  1.70E-06,  avg # of iterations =  4.5

     total cpu time spent up to now is        2.2 secs

     total energy              =     -93.45305103 Ry
     estimated scf accuracy    <       0.00001653 Ry

     iteration #  5     ecut=    25.00 Ry     beta= 0.60
     Davidson diagonalization with overlap
     ethr =  2.07E-07,  avg # of iterations =  3.2

     total cpu time spent up to now is        2.6 secs

     End of self-consistent calculation

          k =-0.0833 0.0833 0.0833 (   582 PWs)   bands (ev):

    -5.7894   4.9939   5.7161   5.7161

          k =-0.2500 0.2500-0.0833 (   580 PWs)   bands (ev):

    -5.3255   2.9372   4.5132   5.5072

          k =-0.4167 0.4167-0.2500 (   590 PWs)   bands (ev):

    -4.2654   0.2424   4.0509   4.8853

          k = 0.4167-0.4167 0.5833 (   591 PWs)   bands (ev):

    -3.5941  -0.8651   4.1106   4.5158

          k = 0.2500-0.2500 0.4167 (   594 PWs)   bands (ev):

    -4.6643   1.0667   4.5779   4.5975

          k = 0.0833-0.0833 0.2500 (   582 PWs)   bands (ev):

    -5.5551   3.9284   5.0897   5.2604

          k =-0.0833 0.4167 0.0833 (   582 PWs)   bands (ev):

    -5.0905   2.7317   4.3559   4.3787

          k =-0.2500 0.5833-0.0833 (   592 PWs)   bands (ev):

    -4.2054   0.9282   3.0782   3.9997

          k = 0.5833-0.2500 0.7500 (   588 PWs)   bands (ev):

    -3.1282  -0.7629   2.4833   3.7813

          k = 0.4167-0.0833 0.5833 (   592 PWs)   bands (ev):

    -3.8237   0.2571   2.4530   4.2513

          k = 0.2500 0.0833 0.4167 (   588 PWs)   bands (ev):

    -4.8715   1.9239   3.7558   4.8966

          k =-0.0833 0.7500 0.0833 (   593 PWs)   bands (ev):

    -3.5117   0.1042   3.0477   3.3741

          k = 0.7500-0.0833 0.9167 (   590 PWs)   bands (ev):

    -2.3511  -1.2046   2.2362   2.9835

          k = 0.5833 0.0833 0.7500 (   589 PWs)   bands (ev):

    -2.7189  -0.8641   1.7643   3.5131

          k = 0.4167 0.2500 0.5833 (   590 PWs)   bands (ev):

    -3.7181  -0.3880   3.3539   4.3450

          k =-0.0833-0.9167 0.0833 (   603 PWs)   bands (ev):

    -2.4371  -1.2109   2.7858   3.1636

          k =-0.2500-0.7500-0.0833 (   592 PWs)   bands (ev):

    -3.3497  -0.1110   2.5432   3.3151

          k =-0.0833-0.5833 0.0833 (   593 PWs)   bands (ev):

    -4.4044   1.4435   3.5752   3.7867

          k =-0.2500 0.2500 0.2500 (   589 PWs)   bands (ev):

    -5.1024   1.9861   5.1161   5.1161

          k =-0.4167 0.4167 0.0833 (   593 PWs)   bands (ev):

    -4.4424   1.0544   3.0423   4.9487

          k = 0.4167-0.4167 0.9167 (   591 PWs)   bands (ev):

    -3.3000  -0.3631   1.9704   4.1854

          k = 0.2500-0.2500 0.7500 (   598 PWs)   bands (ev):

    -3.2478  -0.4412   2.4307   3.7175

          k =-0.2500 0.5833 0.2500 (   589 PWs)   bands (ev):

    -4.0309   0.2706   3.4806   4.0813

          k = 0.5833-0.2500 1.0833 (   586 PWs)   bands (ev):

    -3.0587  -0.4846   2.0695   3.3160

          k = 0.4167-0.0833 0.9167 (   596 PWs)   bands (ev):

    -2.2521  -1.2123   1.9182   2.6704

          k =-0.2500-1.0833 0.2500 (   591 PWs)   bands (ev):

    -2.4579  -1.1126   1.7953   3.5279

          k =-0.4167 0.4167 0.4167 (   592 PWs)   bands (ev):

    -3.9490  -0.4762   4.7340   4.7340

          k = 0.4167-0.4167 1.2500 (   586 PWs)   bands (ev):

    -3.3641  -0.7797   2.9412   4.3083

     highest occupied level (ev):     5.7161

!    total energy              =     -93.45305678 Ry

     total all-electron energy =     -1160.144787 Ry
     estimated scf accuracy    <       0.00000033 Ry

     The total energy is the sum of the following terms:
     one-electron contribution =       5.47125994 Ry
     hartree contribution      =       1.13089889 Ry
     xc contribution           =     -12.26767944 Ry
     ewald contribution        =     -16.60669919 Ry
     one-center paw contrib.   =     -71.18083697 Ry

     convergence has been achieved in   5 iterations

     Writing output data file ././silicon.save/

     init_run     :      0.58s CPU      0.45s WALL (       1 calls)
     electrons    :      3.06s CPU      2.14s WALL (       1 calls)

     Called by init_run:
     wfcinit      :      0.15s CPU      0.07s WALL (       1 calls)
     potinit      :      0.21s CPU      0.21s WALL (       1 calls)
     hinit0       :      0.20s CPU      0.15s WALL (       1 calls)

     Called by electrons:
     c_bands      :      1.27s CPU      0.77s WALL (       6 calls)
     sum_band     :      0.41s CPU      0.19s WALL (       6 calls)
     v_of_rho     :      0.04s CPU      0.03s WALL (       6 calls)
     newd         :      0.04s CPU      0.03s WALL (       6 calls)
     PAW_pot      :      1.51s CPU      1.32s WALL (       6 calls)
     mix_rho      :      0.00s CPU      0.00s WALL (       6 calls)

     Called by c_bands:
     init_us_2    :      0.11s CPU      0.06s WALL (     364 calls)
     cegterg      :      0.90s CPU      0.54s WALL (     168 calls)

     Called by *egterg:
     cdiaghg      :      0.02s CPU      0.01s WALL (     543 calls)
     h_psi        :      0.92s CPU      0.53s WALL (     599 calls)
     s_psi        :      0.02s CPU      0.01s WALL (     599 calls)
     g_psi        :      0.01s CPU      0.00s WALL (     403 calls)

     Called by h_psi:
     h_psi:calbec :      0.04s CPU      0.02s WALL (     599 calls)
     vloc_psi     :      0.84s CPU      0.49s WALL (     599 calls)
     add_vuspsi   :      0.03s CPU      0.01s WALL (     599 calls)

     General routines
     calbec       :      0.05s CPU      0.03s WALL (     767 calls)
     fft          :      0.02s CPU      0.01s WALL (      67 calls)
     ffts         :      0.00s CPU      0.00s WALL (       6 calls)
     fftw         :      0.84s CPU      0.48s WALL (    4938 calls)

     Parallel routines

     PWSCF        :      3.73s CPU      2.66s WALL


   This run was terminated on:  13:53: 4  21May2024            

=------------------------------------------------------------------------------=
   JOB DONE.
=------------------------------------------------------------------------------=
