
     Program PWSCF v.6.7MaX starts on 24May2024 at  8:46:56 

     This program is part of the open-source Quantum ESPRESSO suite
     for quantum simulation of materials; please cite
         "P. Giannozzi et al., J. Phys.:Condens. Matter 21 395502 (2009);
         "P. Giannozzi et al., J. Phys.:Condens. Matter 29 465901 (2017);
          URL http://www.quantum-espresso.org", 
     in publications or presentations arising from this work. More details at
     http://www.quantum-espresso.org/quote

     Parallel version (MPI), running on     1 processors

     MPI processes distributed on     1 nodes
     Waiting for input...
     Reading input from standard input

     Current dimensions of program PWSCF are:
     Max number of different atomic species (ntypx) = 10
     Max number of k-points (npk) =  40000
     Max angular momentum in pseudopotentials (lmaxx) =  3
     file C.UPF: wavefunction(s)  3d renormalized

     Subspace diagonalization in iterative solution of the eigenvalue problem:
     a serial algorithm will be used


     G-vector sticks info
     --------------------
     sticks:   dense  smooth     PW     G-vecs:    dense   smooth      PW
     Sum        4483    4483   1189               482725   482725   66623



     bravais-lattice index     =            4
     lattice parameter (alat)  =      18.0000  a.u.
     unit-cell volume          =   10101.3203 (a.u.)^3
     number of atoms/cell      =            8
     number of atomic types    =            1
     number of electrons       =        32.00
     number of Kohn-Sham states=           20
     kinetic-energy cutoff     =      50.0000  Ry
     charge density cutoff     =     200.0000  Ry
     scf convergence threshold =      1.0E-08
     mixing beta               =       0.7000
     number of iterations used =            8  plain     mixing
     Exchange-correlation=  SLA  PZ   NOGX NOGC
                           (   1   1   0   0   0   0   0)

     celldm(1)=  18.000000  celldm(2)=   0.000000  celldm(3)=   2.000000
     celldm(4)=   0.000000  celldm(5)=   0.000000  celldm(6)=   0.000000

     crystal axes: (cart. coord. in units of alat)
               a(1) = (   1.000000   0.000000   0.000000 )  
               a(2) = (  -0.500000   0.866025   0.000000 )  
               a(3) = (   0.000000   0.000000   2.000000 )  

     reciprocal axes: (cart. coord. in units 2 pi/alat)
               b(1) = (  1.000000  0.577350 -0.000000 )  
               b(2) = (  0.000000  1.154701  0.000000 )  
               b(3) = (  0.000000 -0.000000  0.500000 )  


     PseudoPot. # 1 for C  read from file:
     /usr/share/espresso/pseudo/C.UPF
     MD5 check sum: 4781e8ce5ee01a432381f51d0ea25c53
     Pseudo is Norm-conserving, Zval =  4.0
     Generated by new atomic code, or converted to UPF format
     Using radial grid of  461 points,  2 beta functions with: 
                l(1) =   0
                l(2) =   1

     atomic species   valence    mass     pseudopotential
        C              4.00    12.01070     C ( 1.00)

      2 Sym. Ops. (no inversion) found


                                    s                        frac. trans.

      isym =  1     identity                                     

 cryst.   s( 1) = (     1          0          0      )
                  (     0          1          0      )
                  (     0          0          1      )

 cart.    s( 1) = (  1.0000000  0.0000000  0.0000000 )
                  (  0.0000000  1.0000000  0.0000000 )
                  (  0.0000000  0.0000000  1.0000000 )


      isym =  2     inv. 180 deg rotation - cart. axis [0,0,1]   

 cryst.   s( 2) = (     1          0          0      )
                  (     0          1          0      )
                  (     0          0         -1      )

 cart.    s( 2) = (  1.0000000  0.0000000  0.0000000 )
                  (  0.0000000  1.0000000  0.0000000 )
                  (  0.0000000  0.0000000 -1.0000000 )


     point group C_s (m)    
     there are  2 classes
     the character table:

       E     s    
A'     1.00  1.00
A''    1.00 -1.00

     the symmetry operations in each class and the name of the first element:

     E        1
          identity                                               
     s        2
          inv. 180 deg rotation - cart. axis [0,0,1]             

   Cartesian axes

     site n.     atom                  positions (alat units)
         1           C   tau(   1) = (   0.0000000   0.0000000   0.0000000  )
         2           C   tau(   2) = (   0.1291313   0.0745392   0.0000000  )
         3           C   tau(   3) = (   0.2582626   0.0000000   0.0000000  )
         4           C   tau(   4) = (   0.3873939   0.0745392   0.0000000  )
         5           C   tau(   5) = (   0.1291313   0.2236176   0.0000000  )
         6           C   tau(   6) = (   0.2582626   0.2981568   0.0000000  )
         7           C   tau(   7) = (   0.0000000   0.2236176   0.0000000  )
         8           C   tau(   8) = (   0.3873939   0.2981568   0.0000000  )

   Crystallographic axes

     site n.     atom                  positions (cryst. coord.)
         1           C   tau(   1) = (  0.0000000  0.0000000  0.0000000  )
         2           C   tau(   2) = (  0.1721665  0.0860705  0.0000000  )
         3           C   tau(   3) = (  0.2582626  0.0000000  0.0000000  )
         4           C   tau(   4) = (  0.4304291  0.0860705  0.0000000  )
         5           C   tau(   5) = (  0.2582370  0.2582114  0.0000000  )
         6           C   tau(   6) = (  0.4304035  0.3442818  0.0000000  )
         7           C   tau(   7) = (  0.1291057  0.2582114  0.0000000  )
         8           C   tau(   8) = (  0.5595348  0.3442818  0.0000000  )

     number of k points=    20  Methfessel-Paxton smearing, width (Ry)=  0.0100
                       cart. coord. in units 2pi/alat
        k(    1) = (   0.0000000   0.0000000   0.0000000), wk =   0.0555556
        k(    2) = (   0.0000000   0.1924501   0.0000000), wk =   0.1111111
        k(    3) = (   0.0000000   0.3849002   0.0000000), wk =   0.1111111
        k(    4) = (   0.0000000  -0.5773503   0.0000000), wk =   0.0555556
        k(    5) = (   0.1666667   0.2886751   0.0000000), wk =   0.1111111
        k(    6) = (   0.1666667   0.4811252   0.0000000), wk =   0.1111111
        k(    7) = (   0.3333333   0.5773503   0.0000000), wk =   0.1111111
        k(    8) = (  -0.1666667   0.0962250   0.0000000), wk =   0.1111111
        k(    9) = (   0.1666667   0.0962250   0.0000000), wk =   0.1111111
        k(   10) = (  -0.3333333   0.1924501   0.0000000), wk =   0.1111111
        k(   11) = (   0.3333333   0.1924501   0.0000000), wk =   0.1111111
        k(   12) = (   0.5000000  -0.2886751   0.0000000), wk =   0.0555556
        k(   13) = (  -0.5000000  -0.2886751   0.0000000), wk =   0.0555556
        k(   14) = (  -0.1666667   0.2886751   0.0000000), wk =   0.1111111
        k(   15) = (   0.3333333   0.0000000   0.0000000), wk =   0.1111111
        k(   16) = (  -0.1666667   0.4811252   0.0000000), wk =   0.1111111
        k(   17) = (  -0.3333333   0.3849002   0.0000000), wk =   0.1111111
        k(   18) = (   0.5000000   0.0962250   0.0000000), wk =   0.1111111
        k(   19) = (  -0.3333333  -0.3849002   0.0000000), wk =   0.1111111
        k(   20) = (   0.5000000  -0.0962250   0.0000000), wk =   0.1111111

                       cryst. coord.
        k(    1) = (   0.0000000   0.0000000   0.0000000), wk =   0.0555556
        k(    2) = (   0.0000000   0.1666667   0.0000000), wk =   0.1111111
        k(    3) = (   0.0000000   0.3333333   0.0000000), wk =   0.1111111
        k(    4) = (   0.0000000  -0.5000000   0.0000000), wk =   0.0555556
        k(    5) = (   0.1666667   0.1666667   0.0000000), wk =   0.1111111
        k(    6) = (   0.1666667   0.3333333   0.0000000), wk =   0.1111111
        k(    7) = (   0.3333333   0.3333333   0.0000000), wk =   0.1111111
        k(    8) = (  -0.1666667   0.1666667   0.0000000), wk =   0.1111111
        k(    9) = (   0.1666667   0.0000000   0.0000000), wk =   0.1111111
        k(   10) = (  -0.3333333   0.3333333   0.0000000), wk =   0.1111111
        k(   11) = (   0.3333333   0.0000000   0.0000000), wk =   0.1111111
        k(   12) = (   0.5000000  -0.5000000   0.0000000), wk =   0.0555556
        k(   13) = (  -0.5000000   0.0000000   0.0000000), wk =   0.0555556
        k(   14) = (  -0.1666667   0.3333333   0.0000000), wk =   0.1111111
        k(   15) = (   0.3333333  -0.1666667   0.0000000), wk =   0.1111111
        k(   16) = (  -0.1666667   0.5000000   0.0000000), wk =   0.1111111
        k(   17) = (  -0.3333333   0.5000000   0.0000000), wk =   0.1111111
        k(   18) = (   0.5000000  -0.1666667   0.0000000), wk =   0.1111111
        k(   19) = (  -0.3333333  -0.1666667   0.0000000), wk =   0.1111111
        k(   20) = (   0.5000000  -0.3333333   0.0000000), wk =   0.1111111

     Dense  grid:   482725 G-vectors     FFT dimensions: (  81,  81, 180)

     Dynamical RAM for                 wfc:      18.40 MB

     Dynamical RAM for     wfc (w. buffer):     386.50 MB

     Dynamical RAM for           str. fact:       7.37 MB

     Dynamical RAM for           local pot:       0.00 MB

     Dynamical RAM for          nlocal pot:      29.45 MB

     Dynamical RAM for                qrad:       0.10 MB

     Dynamical RAM for          rho,v,vnew:      49.13 MB

     Dynamical RAM for               rhoin:      16.38 MB

     Dynamical RAM for            rho*nmix:     117.85 MB

     Dynamical RAM for           G-vectors:      31.30 MB

     Dynamical RAM for          h,s,v(r/c):       0.07 MB

     Dynamical RAM for          <psi|beta>:       0.01 MB

     Dynamical RAM for                 psi:      36.81 MB

     Dynamical RAM for                hpsi:      36.81 MB

     Dynamical RAM for      wfcinit/wfcrot:     132.63 MB

     Estimated static dynamical RAM per process >     697.86 MB

     Estimated max dynamical RAM per process >     830.49 MB

     Initial potential from superposition of free atoms

     starting charge   31.99972, renormalised to   32.00000

     negative rho (up, down):  1.174E-03 0.000E+00
     Starting wfcs are   72 randomized atomic wfcs

     total cpu time spent up to now is       69.5 secs

     Self-consistent Calculation

     iteration #  1     ecut=    50.00 Ry     beta= 0.70
     Davidson diagonalization with overlap
     ethr =  1.00E-02,  avg # of iterations =  2.0

     negative rho (up, down):  2.356E-04 0.000E+00

     total cpu time spent up to now is      133.4 secs

     total energy              =     -89.21483080 Ry
     estimated scf accuracy    <       1.33797665 Ry

     iteration #  2     ecut=    50.00 Ry     beta= 0.70
     Davidson diagonalization with overlap
     ethr =  4.18E-03,  avg # of iterations =  6.0

     negative rho (up, down):  1.954E-04 0.000E+00

     total cpu time spent up to now is      207.1 secs

     total energy              =     -87.83804367 Ry
     estimated scf accuracy    <      15.25860727 Ry

     iteration #  3     ecut=    50.00 Ry     beta= 0.70
     Davidson diagonalization with overlap
     ethr =  4.18E-03,  avg # of iterations =  4.0

     negative rho (up, down):  9.475E-05 0.000E+00

     total cpu time spent up to now is      267.0 secs

     total energy              =     -89.56308135 Ry
     estimated scf accuracy    <       1.03151068 Ry

     iteration #  4     ecut=    50.00 Ry     beta= 0.70
     Davidson diagonalization with overlap
     ethr =  3.22E-03,  avg # of iterations =  2.0

     negative rho (up, down):  5.739E-05 0.000E+00

     total cpu time spent up to now is      314.1 secs

     total energy              =     -89.60589670 Ry
     estimated scf accuracy    <       1.29913560 Ry

     iteration #  5     ecut=    50.00 Ry     beta= 0.70
     Davidson diagonalization with overlap
     ethr =  3.22E-03,  avg # of iterations =  1.0

     negative rho (up, down):  2.044E-05 0.000E+00

     total cpu time spent up to now is      357.8 secs

     total energy              =     -89.69871580 Ry
     estimated scf accuracy    <       0.27265140 Ry

     iteration #  6     ecut=    50.00 Ry     beta= 0.70
     Davidson diagonalization with overlap
     ethr =  8.52E-04,  avg # of iterations =  1.0

     negative rho (up, down):  1.547E-05 0.000E+00

     total cpu time spent up to now is      401.6 secs

     total energy              =     -89.70667834 Ry
     estimated scf accuracy    <       0.04792280 Ry

     iteration #  7     ecut=    50.00 Ry     beta= 0.70
     Davidson diagonalization with overlap
     ethr =  1.50E-04,  avg # of iterations =  4.0

     negative rho (up, down):  7.816E-06 0.000E+00

     total cpu time spent up to now is      450.6 secs

     total energy              =     -89.70545465 Ry
     estimated scf accuracy    <       0.04743585 Ry

     iteration #  8     ecut=    50.00 Ry     beta= 0.70
     Davidson diagonalization with overlap
     ethr =  1.48E-04,  avg # of iterations =  1.0

     negative rho (up, down):  2.546E-06 0.000E+00

     total cpu time spent up to now is      494.5 secs

     total energy              =     -89.70646985 Ry
     estimated scf accuracy    <       0.02423363 Ry

     iteration #  9     ecut=    50.00 Ry     beta= 0.70
     Davidson diagonalization with overlap
     ethr =  7.57E-05,  avg # of iterations =  1.0

     negative rho (up, down):  4.591E-08 0.000E+00

     total cpu time spent up to now is      538.4 secs

     total energy              =     -89.70566317 Ry
     estimated scf accuracy    <       0.01458737 Ry

     iteration # 10     ecut=    50.00 Ry     beta= 0.70
     Davidson diagonalization with overlap
     ethr =  4.56E-05,  avg # of iterations =  2.0

     total cpu time spent up to now is      584.6 secs

     total energy              =     -89.70639777 Ry
     estimated scf accuracy    <       0.00170405 Ry

     iteration # 11     ecut=    50.00 Ry     beta= 0.70
     Davidson diagonalization with overlap
     ethr =  5.33E-06,  avg # of iterations =  9.7

     total cpu time spent up to now is      653.8 secs

     total energy              =     -89.70684749 Ry
     estimated scf accuracy    <       0.00063464 Ry

     iteration # 12     ecut=    50.00 Ry     beta= 0.70
     Davidson diagonalization with overlap
     ethr =  1.98E-06,  avg # of iterations =  1.0

     total cpu time spent up to now is      697.9 secs

     total energy              =     -89.70685380 Ry
     estimated scf accuracy    <       0.00009707 Ry

     iteration # 13     ecut=    50.00 Ry     beta= 0.70
