
     Program PWSCF v.6.7MaX starts on 22May2024 at 13:49:47 

     This program is part of the open-source Quantum ESPRESSO suite
     for quantum simulation of materials; please cite
         "P. Giannozzi et al., J. Phys.:Condens. Matter 21 395502 (2009);
         "P. Giannozzi et al., J. Phys.:Condens. Matter 29 465901 (2017);
          URL http://www.quantum-espresso.org", 
     in publications or presentations arising from this work. More details at
     http://www.quantum-espresso.org/quote

     Parallel version (MPI), running on     1 processors

     MPI processes distributed on     1 nodes
     Waiting for input...
     Reading input from standard input

     Current dimensions of program PWSCF are:
     Max number of different atomic species (ntypx) = 10
     Max number of k-points (npk) =  40000
     Max angular momentum in pseudopotentials (lmaxx) =  3
     file Cu.UPF: wavefunction(s)  4S 3D renormalized
     file Pt.UPF: wavefunction(s)  6S 5D renormalized
     file Ni.UPF: wavefunction(s)  4S 3D renormalized

     Subspace diagonalization in iterative solution of the eigenvalue problem:
     a serial algorithm will be used


     G-vector sticks info
     --------------------
     sticks:   dense  smooth     PW     G-vecs:    dense   smooth      PW
     Sum         823     823    253                15473    15473    2637



     bravais-lattice index     =            2
     lattice parameter (alat)  =      10.9000  a.u.
     unit-cell volume          =     323.7572 (a.u.)^3
     number of atoms/cell      =            4
     number of atomic types    =            3
     number of electrons       =        41.00
     number of Kohn-Sham states=           30
     kinetic-energy cutoff     =      50.0000  Ry
     charge density cutoff     =     200.0000  Ry
     scf convergence threshold =      1.0E-07
     mixing beta               =       0.7000
     number of iterations used =            8  plain     mixing
     Exchange-correlation= SLA  PW   PBX  PBC
                           (   1   4   3   4   0   0   0)

     celldm(1)=  10.900000  celldm(2)=   0.000000  celldm(3)=   0.000000
     celldm(4)=   0.000000  celldm(5)=   0.000000  celldm(6)=   0.000000

     crystal axes: (cart. coord. in units of alat)
               a(1) = (  -0.500000   0.000000   0.500000 )  
               a(2) = (   0.000000   0.500000   0.500000 )  
               a(3) = (  -0.500000   0.500000   0.000000 )  

     reciprocal axes: (cart. coord. in units 2 pi/alat)
               b(1) = ( -1.000000 -1.000000  1.000000 )  
               b(2) = (  1.000000  1.000000  1.000000 )  
               b(3) = ( -1.000000  1.000000 -1.000000 )  


     PseudoPot. # 1 for Cu read from file:
     ././Cu.UPF
     MD5 check sum: cfffd1f38ee05704b3e17f46f1730a6f
     Pseudo is Projector augmented-wave + core cor, Zval = 11.0
     Generated using &quot;atomic&quot; code by A. Dal Corso  v.6.3
     Shape of augmentation charge: PSQ
     Using radial grid of 1199 points,  6 beta functions with: 
                l(1) =   0
                l(2) =   0
                l(3) =   1
                l(4) =   1
                l(5) =   2
                l(6) =   2
     Q(r) pseudized with 0 coefficients 


     PseudoPot. # 2 for Pt read from file:
     ././Pt.UPF
     MD5 check sum: c5224e9cd7a5e36e81f2def9f50bb494
     Pseudo is Projector augmented-wave + core cor, Zval = 10.0
     Generated using &quot;atomic&quot; code by A. Dal Corso  v.6.3
     Shape of augmentation charge: PSQ
     Using radial grid of 1277 points,  6 beta functions with: 
                l(1) =   0
                l(2) =   0
                l(3) =   1
                l(4) =   1
                l(5) =   2
                l(6) =   2
     Q(r) pseudized with 0 coefficients 


     PseudoPot. # 3 for Ni read from file:
     ././Ni.UPF
     MD5 check sum: 5bc40517020091042a126ac2b4ecef1e
     Pseudo is Projector augmented-wave + core cor, Zval = 10.0
     Generated using "atomic" code by A. Dal Corso  v.5.0.2 svn rev. 9415
     Shape of augmentation charge: PSQ
     Using radial grid of 1195 points,  6 beta functions with: 
                l(1) =   0
                l(2) =   0
                l(3) =   1
                l(4) =   1
                l(5) =   2
                l(6) =   2
     Q(r) pseudized with 0 coefficients 


     atomic species   valence    mass     pseudopotential
        Cu            11.00    63.54600     Cu( 1.00)
        Pt            10.00   195.08000     Pt( 1.00)
        Ni            10.00    58.69000     Ni( 1.00)

     48 Sym. Ops., with inversion, found


                                    s                        frac. trans.

      isym =  1     identity                                     

 cryst.   s( 1) = (     1          0          0      )
                  (     0          1          0      )
                  (     0          0          1      )

 cart.    s( 1) = (  1.0000000  0.0000000  0.0000000 )
                  (  0.0000000  1.0000000  0.0000000 )
                  (  0.0000000  0.0000000  1.0000000 )


      isym =  2     180 deg rotation - cart. axis [0,0,1]        

 cryst.   s( 2) = (     0          1         -1      )
                  (     1          0         -1      )
                  (     0          0         -1      )

 cart.    s( 2) = ( -1.0000000  0.0000000  0.0000000 )
                  (  0.0000000 -1.0000000  0.0000000 )
                  (  0.0000000  0.0000000  1.0000000 )


      isym =  3     180 deg rotation - cart. axis [0,1,0]        

 cryst.   s( 3) = (    -1          0          0      )
                  (    -1          0          1      )
                  (    -1          1          0      )

 cart.    s( 3) = ( -1.0000000  0.0000000  0.0000000 )
                  (  0.0000000  1.0000000  0.0000000 )
                  (  0.0000000  0.0000000 -1.0000000 )


      isym =  4     180 deg rotation - cart. axis [1,0,0]        

 cryst.   s( 4) = (     0         -1          1      )
                  (     0         -1          0      )
                  (     1         -1          0      )

 cart.    s( 4) = (  1.0000000  0.0000000  0.0000000 )
                  (  0.0000000 -1.0000000  0.0000000 )
                  (  0.0000000  0.0000000 -1.0000000 )


      isym =  5     180 deg rotation - cart. axis [1,1,0]        

 cryst.   s( 5) = (     0         -1          0      )
                  (    -1          0          0      )
                  (     0          0         -1      )

 cart.    s( 5) = (  0.0000000  1.0000000  0.0000000 )
                  (  1.0000000  0.0000000  0.0000000 )
                  (  0.0000000  0.0000000 -1.0000000 )


      isym =  6     180 deg rotation - cart. axis [1,-1,0]       

 cryst.   s( 6) = (    -1          0          1      )
                  (     0         -1          1      )
                  (     0          0          1      )

 cart.    s( 6) = (  0.0000000 -1.0000000  0.0000000 )
                  ( -1.0000000  0.0000000  0.0000000 )
                  (  0.0000000  0.0000000 -1.0000000 )


      isym =  7      90 deg rotation - cart. axis [0,0,-1]       

 cryst.   s( 7) = (     0          1          0      )
                  (     0          1         -1      )
                  (    -1          1          0      )

 cart.    s( 7) = (  0.0000000  1.0000000  0.0000000 )
                  ( -1.0000000  0.0000000  0.0000000 )
                  (  0.0000000  0.0000000  1.0000000 )


      isym =  8      90 deg rotation - cart. axis [0,0,1]        

 cryst.   s( 8) = (     1          0         -1      )
                  (     1          0          0      )
                  (     1         -1          0      )

 cart.    s( 8) = (  0.0000000 -1.0000000  0.0000000 )
                  (  1.0000000  0.0000000  0.0000000 )
                  (  0.0000000  0.0000000  1.0000000 )


      isym =  9     180 deg rotation - cart. axis [1,0,1]        

 cryst.   s( 9) = (    -1          0          0      )
                  (     0          0         -1      )
                  (     0         -1          0      )

 cart.    s( 9) = (  0.0000000  0.0000000  1.0000000 )
                  (  0.0000000 -1.0000000  0.0000000 )
                  (  1.0000000  0.0000000  0.0000000 )


      isym = 10     180 deg rotation - cart. axis [-1,0,1]       

 cryst.   s(10) = (     1          0          0      )
                  (     1         -1          0      )
                  (     1          0         -1      )

 cart.    s(10) = (  0.0000000  0.0000000 -1.0000000 )
                  (  0.0000000 -1.0000000  0.0000000 )
                  ( -1.0000000  0.0000000  0.0000000 )


      isym = 11      90 deg rotation - cart. axis [0,1,0]        

 cryst.   s(11) = (     0          1         -1      )
                  (    -1          1          0      )
                  (     0          1          0      )

 cart.    s(11) = (  0.0000000  0.0000000  1.0000000 )
                  (  0.0000000  1.0000000  0.0000000 )
                  ( -1.0000000  0.0000000  0.0000000 )


      isym = 12      90 deg rotation - cart. axis [0,-1,0]       

 cryst.   s(12) = (     0         -1          1      )
                  (     0          0          1      )
                  (    -1          0          1      )

 cart.    s(12) = (  0.0000000  0.0000000 -1.0000000 )
                  (  0.0000000  1.0000000  0.0000000 )
                  (  1.0000000  0.0000000  0.0000000 )


      isym = 13     180 deg rotation - cart. axis [0,1,1]        

 cryst.   s(13) = (    -1          1          0      )
                  (     0          1          0      )
                  (     0          1         -1      )

 cart.    s(13) = ( -1.0000000  0.0000000  0.0000000 )
                  (  0.0000000  0.0000000  1.0000000 )
                  (  0.0000000  1.0000000  0.0000000 )


      isym = 14     180 deg rotation - cart. axis [0,1,-1]       

 cryst.   s(14) = (     0          0         -1      )
                  (     0         -1          0      )
                  (    -1          0          0      )

 cart.    s(14) = ( -1.0000000  0.0000000  0.0000000 )
                  (  0.0000000  0.0000000 -1.0000000 )
                  (  0.0000000 -1.0000000  0.0000000 )


      isym = 15      90 deg rotation - cart. axis [-1,0,0]       

 cryst.   s(15) = (     0          0          1      )
                  (    -1          0          1      )
                  (     0         -1          1      )

 cart.    s(15) = (  1.0000000  0.0000000  0.0000000 )
                  (  0.0000000  0.0000000  1.0000000 )
                  (  0.0000000 -1.0000000  0.0000000 )


      isym = 16      90 deg rotation - cart. axis [1,0,0]        

 cryst.   s(16) = (     1         -1          0      )
                  (     1          0         -1      )
                  (     1          0          0      )

 cart.    s(16) = (  1.0000000  0.0000000  0.0000000 )
                  (  0.0000000  0.0000000 -1.0000000 )
                  (  0.0000000  1.0000000  0.0000000 )


      isym = 17     120 deg rotation - cart. axis [-1,-1,-1]     

 cryst.   s(17) = (    -1          0          1      )
                  (    -1          1          0      )
                  (    -1          0          0      )

 cart.    s(17) = (  0.0000000  1.0000000  0.0000000 )
                  (  0.0000000  0.0000000  1.0000000 )
                  (  1.0000000  0.0000000  0.0000000 )


      isym = 18     120 deg rotation - cart. axis [-1,1,1]       

 cryst.   s(18) = (     0          1          0      )
                  (     0          0          1      )
                  (     1          0          0      )

 cart.    s(18) = (  0.0000000 -1.0000000  0.0000000 )
                  (  0.0000000  0.0000000  1.0000000 )
                  ( -1.0000000  0.0000000  0.0000000 )


      isym = 19     120 deg rotation - cart. axis [1,1,-1]       

 cryst.   s(19) = (     1          0         -1      )
                  (     0          0         -1      )
                  (     0          1         -1      )

 cart.    s(19) = (  0.0000000  1.0000000  0.0000000 )
                  (  0.0000000  0.0000000 -1.0000000 )
                  ( -1.0000000  0.0000000  0.0000000 )


      isym = 20     120 deg rotation - cart. axis [1,-1,1]       

 cryst.   s(20) = (     0         -1          0      )
                  (     1         -1          0      )
                  (     0         -1          1      )

 cart.    s(20) = (  0.0000000 -1.0000000  0.0000000 )
                  (  0.0000000  0.0000000 -1.0000000 )
                  (  1.0000000  0.0000000  0.0000000 )


      isym = 21     120 deg rotation - cart. axis [1,1,1]        

 cryst.   s(21) = (     0          0         -1      )
                  (     0          1         -1      )
                  (     1          0         -1      )

 cart.    s(21) = (  0.0000000  0.0000000  1.0000000 )
                  (  1.0000000  0.0000000  0.0000000 )
                  (  0.0000000  1.0000000  0.0000000 )


      isym = 22     120 deg rotation - cart. axis [-1,1,-1]      

 cryst.   s(22) = (    -1          1          0      )
                  (    -1          0          0      )
                  (    -1          0          1      )

 cart.    s(22) = (  0.0000000  0.0000000  1.0000000 )
                  ( -1.0000000  0.0000000  0.0000000 )
                  (  0.0000000 -1.0000000  0.0000000 )


      isym = 23     120 deg rotation - cart. axis [1,-1,-1]      

 cryst.   s(23) = (     0          0          1      )
                  (     1          0          0      )
                  (     0          1          0      )

 cart.    s(23) = (  0.0000000  0.0000000 -1.0000000 )
                  ( -1.0000000  0.0000000  0.0000000 )
                  (  0.0000000  1.0000000  0.0000000 )


      isym = 24     120 deg rotation - cart. axis [-1,-1,1]      

 cryst.   s(24) = (     1         -1          0      )
                  (     0         -1          1      )
                  (     0         -1          0      )

 cart.    s(24) = (  0.0000000  0.0000000 -1.0000000 )
                  (  1.0000000  0.0000000  0.0000000 )
                  (  0.0000000 -1.0000000  0.0000000 )


      isym = 25     inversion                                    

 cryst.   s(25) = (    -1          0          0      )
                  (     0         -1          0      )
                  (     0          0         -1      )

 cart.    s(25) = ( -1.0000000  0.0000000  0.0000000 )
                  (  0.0000000 -1.0000000  0.0000000 )
                  (  0.0000000  0.0000000 -1.0000000 )


      isym = 26     inv. 180 deg rotation - cart. axis [0,0,1]   

 cryst.   s(26) = (     0         -1          1      )
                  (    -1          0          1      )
                  (     0          0          1      )

 cart.    s(26) = (  1.0000000  0.0000000  0.0000000 )
                  (  0.0000000  1.0000000  0.0000000 )
                  (  0.0000000  0.0000000 -1.0000000 )


      isym = 27     inv. 180 deg rotation - cart. axis [0,1,0]   

 cryst.   s(27) = (     1          0          0      )
                  (     1          0         -1      )
                  (     1         -1          0      )

 cart.    s(27) = (  1.0000000  0.0000000  0.0000000 )
                  (  0.0000000 -1.0000000  0.0000000 )
                  (  0.0000000  0.0000000  1.0000000 )


      isym = 28     inv. 180 deg rotation - cart. axis [1,0,0]   

 cryst.   s(28) = (     0          1         -1      )
                  (     0          1          0      )
                  (    -1          1          0      )

 cart.    s(28) = ( -1.0000000  0.0000000  0.0000000 )
                  (  0.0000000  1.0000000  0.0000000 )
                  (  0.0000000  0.0000000  1.0000000 )


      isym = 29     inv. 180 deg rotation - cart. axis [1,1,0]   

 cryst.   s(29) = (     0          1          0      )
                  (     1          0          0      )
                  (     0          0          1      )

 cart.    s(29) = (  0.0000000 -1.0000000  0.0000000 )
                  ( -1.0000000  0.0000000  0.0000000 )
                  (  0.0000000  0.0000000  1.0000000 )


      isym = 30     inv. 180 deg rotation - cart. axis [1,-1,0]  

 cryst.   s(30) = (     1          0         -1      )
                  (     0          1         -1      )
                  (     0          0         -1      )

 cart.    s(30) = (  0.0000000  1.0000000  0.0000000 )
                  (  1.0000000  0.0000000  0.0000000 )
                  (  0.0000000  0.0000000  1.0000000 )


      isym = 31     inv.  90 deg rotation - cart. axis [0,0,-1]  

 cryst.   s(31) = (     0         -1          0      )
                  (     0         -1          1      )
                  (     1         -1          0      )

 cart.    s(31) = (  0.0000000 -1.0000000  0.0000000 )
                  (  1.0000000  0.0000000  0.0000000 )
                  (  0.0000000  0.0000000 -1.0000000 )


      isym = 32     inv.  90 deg rotation - cart. axis [0,0,1]   

 cryst.   s(32) = (    -1          0          1      )
                  (    -1          0          0      )
                  (    -1          1          0      )

 cart.    s(32) = (  0.0000000  1.0000000  0.0000000 )
                  ( -1.0000000  0.0000000  0.0000000 )
                  (  0.0000000  0.0000000 -1.0000000 )


      isym = 33     inv. 180 deg rotation - cart. axis [1,0,1]   

 cryst.   s(33) = (     1          0          0      )
                  (     0          0          1      )
                  (     0          1          0      )

 cart.    s(33) = (  0.0000000  0.0000000 -1.0000000 )
                  (  0.0000000  1.0000000  0.0000000 )
                  ( -1.0000000  0.0000000  0.0000000 )


      isym = 34     inv. 180 deg rotation - cart. axis [-1,0,1]  

 cryst.   s(34) = (    -1          0          0      )
                  (    -1          1          0      )
                  (    -1          0          1      )

 cart.    s(34) = (  0.0000000  0.0000000  1.0000000 )
                  (  0.0000000  1.0000000  0.0000000 )
                  (  1.0000000  0.0000000  0.0000000 )


      isym = 35     inv.  90 deg rotation - cart. axis [0,1,0]   

 cryst.   s(35) = (     0         -1          1      )
                  (     1         -1          0      )
                  (     0         -1          0      )

 cart.    s(35) = (  0.0000000  0.0000000 -1.0000000 )
                  (  0.0000000 -1.0000000  0.0000000 )
                  (  1.0000000  0.0000000  0.0000000 )


      isym = 36     inv.  90 deg rotation - cart. axis [0,-1,0]  

 cryst.   s(36) = (     0          1         -1      )
                  (     0          0         -1      )
                  (     1          0         -1      )

 cart.    s(36) = (  0.0000000  0.0000000  1.0000000 )
                  (  0.0000000 -1.0000000  0.0000000 )
                  ( -1.0000000  0.0000000  0.0000000 )


      isym = 37     inv. 180 deg rotation - cart. axis [0,1,1]   

 cryst.   s(37) = (     1         -1          0      )
                  (     0         -1          0      )
                  (     0         -1          1      )

 cart.    s(37) = (  1.0000000  0.0000000  0.0000000 )
                  (  0.0000000  0.0000000 -1.0000000 )
                  (  0.0000000 -1.0000000  0.0000000 )


      isym = 38     inv. 180 deg rotation - cart. axis [0,1,-1]  

 cryst.   s(38) = (     0          0          1      )
                  (     0          1          0      )
                  (     1          0          0      )

 cart.    s(38) = (  1.0000000  0.0000000  0.0000000 )
                  (  0.0000000  0.0000000  1.0000000 )
                  (  0.0000000  1.0000000  0.0000000 )


      isym = 39     inv.  90 deg rotation - cart. axis [-1,0,0]  

 cryst.   s(39) = (     0          0         -1      )
                  (     1          0         -1      )
                  (     0          1         -1      )

 cart.    s(39) = ( -1.0000000  0.0000000  0.0000000 )
                  (  0.0000000  0.0000000 -1.0000000 )
                  (  0.0000000  1.0000000  0.0000000 )


      isym = 40     inv.  90 deg rotation - cart. axis [1,0,0]   

 cryst.   s(40) = (    -1          1          0      )
                  (    -1          0          1      )
                  (    -1          0          0      )

 cart.    s(40) = ( -1.0000000  0.0000000  0.0000000 )
                  (  0.0000000  0.0000000  1.0000000 )
                  (  0.0000000 -1.0000000  0.0000000 )


      isym = 41     inv. 120 deg rotation - cart. axis [-1,-1,-1]

 cryst.   s(41) = (     1          0         -1      )
                  (     1         -1          0      )
                  (     1          0          0      )

 cart.    s(41) = (  0.0000000 -1.0000000  0.0000000 )
                  (  0.0000000  0.0000000 -1.0000000 )
                  ( -1.0000000  0.0000000  0.0000000 )


      isym = 42     inv. 120 deg rotation - cart. axis [-1,1,1]  

 cryst.   s(42) = (     0         -1          0      )
                  (     0          0         -1      )
                  (    -1          0          0      )

 cart.    s(42) = (  0.0000000  1.0000000  0.0000000 )
                  (  0.0000000  0.0000000 -1.0000000 )
                  (  1.0000000  0.0000000  0.0000000 )


      isym = 43     inv. 120 deg rotation - cart. axis [1,1,-1]  

 cryst.   s(43) = (    -1          0          1      )
                  (     0          0          1      )
                  (     0         -1          1      )

 cart.    s(43) = (  0.0000000 -1.0000000  0.0000000 )
                  (  0.0000000  0.0000000  1.0000000 )
                  (  1.0000000  0.0000000  0.0000000 )


      isym = 44     inv. 120 deg rotation - cart. axis [1,-1,1]  

 cryst.   s(44) = (     0          1          0      )
                  (    -1          1          0      )
                  (     0          1         -1      )

 cart.    s(44) = (  0.0000000  1.0000000  0.0000000 )
                  (  0.0000000  0.0000000  1.0000000 )
                  ( -1.0000000  0.0000000  0.0000000 )


      isym = 45     inv. 120 deg rotation - cart. axis [1,1,1]   

 cryst.   s(45) = (     0          0          1      )
                  (     0         -1          1      )
                  (    -1          0          1      )

 cart.    s(45) = (  0.0000000  0.0000000 -1.0000000 )
                  ( -1.0000000  0.0000000  0.0000000 )
                  (  0.0000000 -1.0000000  0.0000000 )


      isym = 46     inv. 120 deg rotation - cart. axis [-1,1,-1] 

 cryst.   s(46) = (     1         -1          0      )
                  (     1          0          0      )
                  (     1          0         -1      )

 cart.    s(46) = (  0.0000000  0.0000000 -1.0000000 )
                  (  1.0000000  0.0000000  0.0000000 )
                  (  0.0000000  1.0000000  0.0000000 )


      isym = 47     inv. 120 deg rotation - cart. axis [1,-1,-1] 

 cryst.   s(47) = (     0          0         -1      )
                  (    -1          0          0      )
                  (     0         -1          0      )

 cart.    s(47) = (  0.0000000  0.0000000  1.0000000 )
                  (  1.0000000  0.0000000  0.0000000 )
                  (  0.0000000 -1.0000000  0.0000000 )


      isym = 48     inv. 120 deg rotation - cart. axis [-1,-1,1] 

 cryst.   s(48) = (    -1          1          0      )
                  (     0          1         -1      )
                  (     0          1          0      )

 cart.    s(48) = (  0.0000000  0.0000000  1.0000000 )
                  ( -1.0000000  0.0000000  0.0000000 )
                  (  0.0000000  1.0000000  0.0000000 )


     point group O_h (m-3m) 
     there are 10 classes
     the character table:

       E     8C3   3C2   6C4   6C2'  i     8S6   3s_h  6S4   6s_d 
A_1g   1.00  1.00  1.00  1.00  1.00  1.00  1.00  1.00  1.00  1.00
A_2g   1.00  1.00  1.00 -1.00 -1.00  1.00  1.00  1.00 -1.00 -1.00
E_g    2.00 -1.00  2.00  0.00  0.00  2.00 -1.00  2.00  0.00  0.00
T_1g   3.00  0.00 -1.00  1.00 -1.00  3.00  0.00 -1.00  1.00 -1.00
T_2g   3.00  0.00 -1.00 -1.00  1.00  3.00  0.00 -1.00 -1.00  1.00
A_1u   1.00  1.00  1.00  1.00  1.00 -1.00 -1.00 -1.00 -1.00 -1.00
A_2u   1.00  1.00  1.00 -1.00 -1.00 -1.00 -1.00 -1.00  1.00  1.00
E_u    2.00 -1.00  2.00  0.00  0.00 -2.00  1.00 -2.00  0.00  0.00
T_1u   3.00  0.00 -1.00  1.00 -1.00 -3.00  0.00  1.00 -1.00  1.00
T_2u   3.00  0.00 -1.00 -1.00  1.00 -3.00  0.00  1.00  1.00 -1.00

     the symmetry operations in each class and the name of the first element:

     E        1
          identity                                               
     8C3     17   19   20   18   24   21   22   23
          120 deg rotation - cart. axis [-1,-1,-1]               
     3C2      2    4    3
          180 deg rotation - cart. axis [0,0,1]                  
     6C4      7    8   15   16   12   11
           90 deg rotation - cart. axis [0,0,-1]                 
     6C2'     5    6   14   13   10    9
          180 deg rotation - cart. axis [1,1,0]                  
     i       25
          inversion                                              
     8S6     41   43   44   42   48   45   46   47
          inv. 120 deg rotation - cart. axis [-1,-1,-1]          
     3s_h    26   28   27
          inv. 180 deg rotation - cart. axis [0,0,1]             
     6S4     31   32   39   40   36   35
          inv.  90 deg rotation - cart. axis [0,0,-1]            
     6s_d    29   30   38   37   34   33
          inv. 180 deg rotation - cart. axis [1,1,0]             

   Cartesian axes

     site n.     atom                  positions (alat units)
         1           Cu  tau(   1) = (   0.0000000   0.0000000   0.0000000  )
         2           Pt  tau(   2) = (   0.5000000   0.5000000   0.5000000  )
         3           Ni  tau(   3) = (   0.2500000   0.2500000   0.2500000  )
         4           Ni  tau(   4) = (   0.7500000   0.7500000   0.7500000  )

   Crystallographic axes

     site n.     atom                  positions (cryst. coord.)
         1           Cu  tau(   1) = (  0.0000000  0.0000000  0.0000000  )
         2           Pt  tau(   2) = ( -0.5000000  1.5000000 -0.5000000  )
         3           Ni  tau(   3) = ( -0.2500000  0.7500000 -0.2500000  )
         4           Ni  tau(   4) = ( -0.7500000  2.2500000 -0.7500000  )

     number of k points=    29  Methfessel-Paxton smearing, width (Ry)=  0.0050
                       cart. coord. in units 2pi/alat
        k(    1) = (   0.0000000   0.0000000   0.0000000), wk =   0.0039062
        k(    2) = (  -0.1250000   0.1250000  -0.1250000), wk =   0.0312500
        k(    3) = (  -0.2500000   0.2500000  -0.2500000), wk =   0.0312500
        k(    4) = (  -0.3750000   0.3750000  -0.3750000), wk =   0.0312500
        k(    5) = (   0.5000000  -0.5000000   0.5000000), wk =   0.0156250
        k(    6) = (   0.0000000   0.2500000   0.0000000), wk =   0.0234375
        k(    7) = (  -0.1250000   0.3750000  -0.1250000), wk =   0.0937500
        k(    8) = (  -0.2500000   0.5000000  -0.2500000), wk =   0.0937500
        k(    9) = (   0.6250000  -0.3750000   0.6250000), wk =   0.0937500
        k(   10) = (   0.5000000  -0.2500000   0.5000000), wk =   0.0937500
        k(   11) = (   0.3750000  -0.1250000   0.3750000), wk =   0.0937500
        k(   12) = (   0.2500000   0.0000000   0.2500000), wk =   0.0468750
        k(   13) = (   0.0000000   0.5000000   0.0000000), wk =   0.0234375
        k(   14) = (  -0.1250000   0.6250000  -0.1250000), wk =   0.0937500
        k(   15) = (   0.7500000  -0.2500000   0.7500000), wk =   0.0937500
        k(   16) = (   0.6250000  -0.1250000   0.6250000), wk =   0.0937500
        k(   17) = (   0.5000000   0.0000000   0.5000000), wk =   0.0468750
        k(   18) = (   0.0000000   0.7500000   0.0000000), wk =   0.0234375
        k(   19) = (   0.8750000  -0.1250000   0.8750000), wk =   0.0937500
        k(   20) = (   0.7500000   0.0000000   0.7500000), wk =   0.0468750
        k(   21) = (   0.0000000  -1.0000000   0.0000000), wk =   0.0117188
        k(   22) = (  -0.2500000   0.5000000   0.0000000), wk =   0.0937500
        k(   23) = (   0.6250000  -0.3750000   0.8750000), wk =   0.1875000
        k(   24) = (   0.5000000  -0.2500000   0.7500000), wk =   0.0937500
        k(   25) = (   0.7500000  -0.2500000   1.0000000), wk =   0.0937500
        k(   26) = (   0.6250000  -0.1250000   0.8750000), wk =   0.1875000
        k(   27) = (   0.5000000   0.0000000   0.7500000), wk =   0.0937500
        k(   28) = (  -0.2500000  -1.0000000   0.0000000), wk =   0.0468750
        k(   29) = (  -0.5000000  -1.0000000   0.0000000), wk =   0.0234375

                       cryst. coord.
        k(    1) = (   0.0000000   0.0000000   0.0000000), wk =   0.0039062
        k(    2) = (   0.0000000   0.0000000   0.1250000), wk =   0.0312500
        k(    3) = (   0.0000000   0.0000000   0.2500000), wk =   0.0312500
        k(    4) = (   0.0000000   0.0000000   0.3750000), wk =   0.0312500
        k(    5) = (   0.0000000   0.0000000  -0.5000000), wk =   0.0156250
        k(    6) = (   0.0000000   0.1250000   0.1250000), wk =   0.0234375
        k(    7) = (   0.0000000   0.1250000   0.2500000), wk =   0.0937500
        k(    8) = (   0.0000000   0.1250000   0.3750000), wk =   0.0937500
        k(    9) = (   0.0000000   0.1250000  -0.5000000), wk =   0.0937500
        k(   10) = (   0.0000000   0.1250000  -0.3750000), wk =   0.0937500
        k(   11) = (   0.0000000   0.1250000  -0.2500000), wk =   0.0937500
        k(   12) = (   0.0000000   0.1250000  -0.1250000), wk =   0.0468750
        k(   13) = (   0.0000000   0.2500000   0.2500000), wk =   0.0234375
        k(   14) = (   0.0000000   0.2500000   0.3750000), wk =   0.0937500
        k(   15) = (   0.0000000   0.2500000  -0.5000000), wk =   0.0937500
        k(   16) = (   0.0000000   0.2500000  -0.3750000), wk =   0.0937500
        k(   17) = (   0.0000000   0.2500000  -0.2500000), wk =   0.0468750
        k(   18) = (   0.0000000   0.3750000   0.3750000), wk =   0.0234375
        k(   19) = (   0.0000000   0.3750000  -0.5000000), wk =   0.0937500
        k(   20) = (   0.0000000   0.3750000  -0.3750000), wk =   0.0468750
        k(   21) = (   0.0000000  -0.5000000  -0.5000000), wk =   0.0117188
        k(   22) = (   0.1250000   0.2500000   0.3750000), wk =   0.0937500
        k(   23) = (   0.1250000   0.2500000  -0.5000000), wk =   0.1875000
        k(   24) = (   0.1250000   0.2500000  -0.3750000), wk =   0.0937500
        k(   25) = (   0.1250000   0.3750000  -0.5000000), wk =   0.0937500
        k(   26) = (   0.1250000   0.3750000  -0.3750000), wk =   0.1875000
        k(   27) = (   0.1250000   0.3750000  -0.2500000), wk =   0.0937500
        k(   28) = (   0.1250000  -0.5000000  -0.3750000), wk =   0.0468750
        k(   29) = (   0.2500000  -0.5000000  -0.2500000), wk =   0.0234375

     Dense  grid:    15473 G-vectors     FFT dimensions: (  36,  36,  36)

     Dynamical RAM for                 wfc:       0.88 MB

     Dynamical RAM for     wfc (w. buffer):      26.55 MB

     Dynamical RAM for           str. fact:       0.71 MB

     Dynamical RAM for           local pot:       0.00 MB

     Dynamical RAM for          nlocal pot:       2.12 MB

     Dynamical RAM for                qrad:       3.41 MB

     Dynamical RAM for          rho,v,vnew:       1.78 MB

     Dynamical RAM for               rhoin:       0.59 MB

     Dynamical RAM for            rho*nmix:       3.78 MB

     Dynamical RAM for           G-vectors:       1.00 MB

     Dynamical RAM for          h,s,v(r/c):       0.16 MB

     Dynamical RAM for          <psi|beta>:       0.03 MB

     Dynamical RAM for                 psi:       1.77 MB

     Dynamical RAM for                hpsi:       1.77 MB

     Dynamical RAM for                spsi:       1.77 MB

     Dynamical RAM for      wfcinit/wfcrot:       2.15 MB

     Dynamical RAM for           addusdens:      44.39 MB

     Estimated static dynamical RAM per process >      42.66 MB

     Estimated max dynamical RAM per process >      87.05 MB

     Initial potential from superposition of free atoms

     starting charge   40.99910, renormalised to   41.00000
     Starting wfcs are   36 randomized atomic wfcs
     Checking if some PAW data can be deallocated... 

     total cpu time spent up to now is        2.8 secs

     Self-consistent Calculation

     iteration #  1     ecut=    50.00 Ry     beta= 0.70
     Davidson diagonalization with overlap
     ethr =  1.00E-02,  avg # of iterations =  4.0

     total cpu time spent up to now is        7.0 secs

     total energy              =   -1329.38352534 Ry
     estimated scf accuracy    <       3.08641618 Ry

     iteration #  2     ecut=    50.00 Ry     beta= 0.70
     Davidson diagonalization with overlap
     ethr =  7.53E-03,  avg # of iterations =  3.2

     total cpu time spent up to now is       11.8 secs

     total energy              =   -1327.23260099 Ry
     estimated scf accuracy    <      51.62341252 Ry

     iteration #  3     ecut=    50.00 Ry     beta= 0.70
     Davidson diagonalization with overlap
     ethr =  7.53E-03,  avg # of iterations =  3.0

     total cpu time spent up to now is       15.9 secs

     total energy              =   -1331.68278655 Ry
     estimated scf accuracy    <       1.14807535 Ry

     iteration #  4     ecut=    50.00 Ry     beta= 0.70
     Davidson diagonalization with overlap
     ethr =  2.80E-03,  avg # of iterations =  1.5

     total cpu time spent up to now is       19.4 secs

     total energy              =   -1331.76829826 Ry
     estimated scf accuracy    <       0.16855254 Ry

     iteration #  5     ecut=    50.00 Ry     beta= 0.70
     Davidson diagonalization with overlap
     ethr =  4.11E-04,  avg # of iterations =  2.6

     total cpu time spent up to now is       23.2 secs

     total energy              =   -1331.77859937 Ry
     estimated scf accuracy    <       0.04006191 Ry

     iteration #  6     ecut=    50.00 Ry     beta= 0.70
     Davidson diagonalization with overlap
     ethr =  9.77E-05,  avg # of iterations =  4.0

     total cpu time spent up to now is       27.2 secs

     total energy              =   -1331.78606157 Ry
     estimated scf accuracy    <       0.00112135 Ry

     iteration #  7     ecut=    50.00 Ry     beta= 0.70
     Davidson diagonalization with overlap
     c_bands:  1 eigenvalues not converged
     c_bands:  1 eigenvalues not converged
     c_bands:  1 eigenvalues not converged
     c_bands:  1 eigenvalues not converged
     c_bands:  2 eigenvalues not converged
     ethr =  2.73E-06,  avg # of iterations = 10.1

     total cpu time spent up to now is       33.8 secs

     total energy              =   -1331.78778174 Ry
     estimated scf accuracy    <       0.00309086 Ry

     iteration #  8     ecut=    50.00 Ry     beta= 0.70
     Davidson diagonalization with overlap
     ethr =  2.73E-06,  avg # of iterations =  2.7

     total cpu time spent up to now is       37.5 secs

     total energy              =   -1331.78775141 Ry
     estimated scf accuracy    <       0.00067766 Ry

     iteration #  9     ecut=    50.00 Ry     beta= 0.70
     Davidson diagonalization with overlap
     ethr =  1.65E-06,  avg # of iterations =  1.0

     total cpu time spent up to now is       41.0 secs

     total energy              =   -1331.78778423 Ry
     estimated scf accuracy    <       0.00005448 Ry

     iteration # 10     ecut=    50.00 Ry     beta= 0.70
     Davidson diagonalization with overlap
     ethr =  1.33E-07,  avg # of iterations =  3.1

     total cpu time spent up to now is       44.9 secs

     total energy              =   -1331.78779700 Ry
     estimated scf accuracy    <       0.00001057 Ry

     iteration # 11     ecut=    50.00 Ry     beta= 0.70
     Davidson diagonalization with overlap
     ethr =  2.58E-08,  avg # of iterations =  3.3

     total cpu time spent up to now is       48.7 secs

     total energy              =   -1331.78779769 Ry
     estimated scf accuracy    <       0.00000201 Ry

     iteration # 12     ecut=    50.00 Ry     beta= 0.70
     Davidson diagonalization with overlap
     ethr =  4.90E-09,  avg # of iterations =  2.8

     total cpu time spent up to now is       52.6 secs

     total energy              =   -1331.78779816 Ry
     estimated scf accuracy    <       0.00000013 Ry

     iteration # 13     ecut=    50.00 Ry     beta= 0.70
     Davidson diagonalization with overlap
     ethr =  3.26E-10,  avg # of iterations =  4.7

     total cpu time spent up to now is       57.2 secs

     End of self-consistent calculation

          k = 0.0000 0.0000 0.0000 (  1917 PWs)   bands (ev):

     5.2982   9.7426   9.7426  10.2527  10.2527  10.2527  12.1309  12.1309
    12.1309  12.2106  12.2106  12.2106  13.3022  13.3022  14.3870  14.3870
    14.3972  14.3972  14.6936  14.6936  14.6936  22.0562  22.0562  22.0562
    22.9023  22.9321  24.1965  24.1976  24.2000  24.2268

     occupation numbers 
     1.0000   1.0000   1.0000   1.0000   1.0000   1.0000   1.0000   1.0000
     1.0000   1.0000   1.0000   1.0000   1.0000   1.0000   1.0000   1.0000
     1.0000   1.0000   1.0315   1.0315   1.0315  -0.0000  -0.0000  -0.0000
    -0.0000  -0.0000  -0.0000  -0.0000  -0.0000  -0.0000

          k =-0.1250 0.1250-0.1250 (  1934 PWs)   bands (ev):

     5.5418   9.8275   9.8275  10.1725  10.2994  10.2994  12.0276  12.0847
    12.0847  12.1678  12.1678  12.3087  13.3375  13.3375  14.3325  14.3325
    14.3566  14.3566  14.3578  14.6760  14.6760  20.1837  21.9100  21.9100
    22.4883  23.3897  23.3897  23.5456  23.9335  25.2267

     occupation numbers 
     1.0000   1.0000   1.0000   1.0000   1.0000   1.0000   1.0000   1.0000
     1.0000   1.0000   1.0000   1.0000   1.0000   1.0000   1.0000   1.0000
     1.0000   1.0000   1.0000   1.0200   1.0200  -0.0000  -0.0000  -0.0000
    -0.0000  -0.0000  -0.0000  -0.0000  -0.0000  -0.0000

          k =-0.2500 0.2500-0.2500 (  1934 PWs)   bands (ev):

     6.2445  10.0366  10.0440  10.0440  10.4484  10.4484  11.5886  11.9482
    11.9482  12.0356  12.0356  12.5020  13.4350  13.4350  13.7029  14.1639
    14.1639  14.2940  14.2940  14.6342  14.6342  17.8513  21.5452  21.5452
    22.0259  22.7615  22.7616  23.6759  25.5306  26.5619

     occupation numbers 
     1.0000   1.0000   1.0000   1.0000   1.0000   1.0000   1.0000   1.0000
     1.0000   1.0000   1.0000   1.0000   1.0000   1.0000   1.0000   1.0000
     1.0000   1.0000   1.0000   1.0029   1.0029  -0.0000  -0.0000  -0.0000
    -0.0000  -0.0000  -0.0000  -0.0000  -0.0000  -0.0000

          k =-0.3750 0.3750-0.3750 (  1922 PWs)   bands (ev):

     7.3017   9.7737  10.2659  10.2659  10.7189  10.7189  10.9965  11.7109
    11.7109  11.8654  11.8654  12.1601  13.5574  13.5574  13.7361  13.9963
    13.9963  14.2434  14.2434  14.5712  14.5712  16.0380  21.1673  21.1673
    21.7931  22.4021  22.4021  23.7115  27.9121  28.2284

     occupation numbers 
     1.0000   1.0000   1.0000   1.0000   1.0000   1.0000   1.0000   1.0000
     1.0000   1.0000   1.0000   1.0000   1.0000   1.0000   1.0000   1.0000
     1.0000   1.0000   1.0000   1.0000   1.0000  -0.0000  -0.0000  -0.0000
    -0.0000  -0.0000  -0.0000  -0.0000  -0.0000  -0.0000

          k = 0.5000-0.5000 0.5000 (  1916 PWs)   bands (ev):

     8.2098   9.1277  10.3556  10.3556  10.9434  10.9434  10.9546  11.5051
    11.5051  11.7075  11.7880  11.7880  13.6198  13.6198  13.9315  13.9315
    14.2222  14.2222  14.2395  14.5340  14.5340  15.0762  21.0119  21.0119
    21.7246  22.2883  22.2883  23.7124  29.5724  29.5724

     occupation numbers 
     1.0000   1.0000   1.0000   1.0000   1.0000   1.0000   1.0000   1.0000
     1.0000   1.0000   1.0000   1.0000   1.0000   1.0000   1.0000   1.0000
     1.0000   1.0000   1.0000   1.0000   1.0000  -0.0000  -0.0000  -0.0000
    -0.0000  -0.0000  -0.0000  -0.0000  -0.0000  -0.0000

          k = 0.0000 0.2500 0.0000 (  1937 PWs)   bands (ev):

     5.6225   9.8262   9.8760  10.0542  10.3517  10.3517  11.6934  12.1907
    12.1907  12.2770  12.2798  12.2798  13.2795  13.3773  14.2521  14.2852
    14.3929  14.4052  14.4503  14.4503  14.6647  20.8019  20.8019  21.1147
    22.0727  22.5441  23.8835  23.8835  25.1878  25.3726

     occupation numbers 
     1.0000   1.0000   1.0000   1.0000   1.0000   1.0000   1.0000   1.0000
     1.0000   1.0000   1.0000   1.0000   1.0000   1.0000   1.0000   1.0000
     1.0000   1.0000   1.0000   1.0000   1.0132  -0.0000  -0.0000  -0.0000
    -0.0000  -0.0000  -0.0000  -0.0000  -0.0000  -0.0000

          k =-0.1250 0.3750-0.1250 (  1942 PWs)   bands (ev):

     6.1706   9.8745   9.9485  10.0673  10.4714  10.4862  11.3415  12.0853
    12.1198  12.2792  12.3233  12.4605  13.3253  13.4314  13.8939  14.0730
    14.1869  14.2371  14.3848  14.4167  14.7104  18.5634  19.9228  20.6886
    21.5378  23.0912  24.1495  24.2291  25.4111  26.7632

     occupation numbers 
     1.0000   1.0000   1.0000   1.0000   1.0000   1.0000   1.0000   1.0000
     1.0000   1.0000   1.0000   1.0000   1.0000   1.0000   1.0000   1.0000
     1.0000   1.0000   1.0000   1.0000   1.0348  -0.0000  -0.0000  -0.0000
    -0.0000  -0.0000  -0.0000  -0.0000  -0.0000  -0.0000

          k =-0.2500 0.5000-0.2500 (  1952 PWs)   bands (ev):

     7.1086   9.7102  10.0808  10.2971  10.6823  10.7065  11.0279  11.8910
    11.9311  12.0165  12.1139  12.4048  13.4719  13.4876  13.6078  13.8700
    14.0242  14.1906  14.3278  14.4464  14.6974  16.5267  19.4655  19.8073
    21.4777  23.7911  24.1855  25.0437  25.3414  28.7662

     occupation numbers 
     1.0000   1.0000   1.0000   1.0000   1.0000   1.0000   1.0000   1.0000
     1.0000   1.0000   1.0000   1.0000   1.0000   1.0000   1.0000   1.0000
     1.0000   1.0000   1.0000   1.0000   1.0334  -0.0000  -0.0000  -0.0000
    -0.0000  -0.0000  -0.0000  -0.0000  -0.0000  -0.0000

          k = 0.6250-0.3750 0.6250 (  1941 PWs)   bands (ev):

     8.1961   9.2007  10.1507  10.4346  10.7435  10.9338  11.1460  11.6532
    11.6630  11.8474  11.8702  11.9209  13.5505  13.5767  13.7808  13.8430
    14.0941  14.1940  14.3234  14.5802  14.5927  15.1825  19.1619  19.5390
    21.4899  23.7373  23.8880  25.2142  27.3880  29.7714

     occupation numbers 
     1.0000   1.0000   1.0000   1.0000   1.0000   1.0000   1.0000   1.0000
     1.0000   1.0000   1.0000   1.0000   1.0000   1.0000   1.0000   1.0000
     1.0000   1.0000   1.0000   1.0001   1.0002  -0.0000  -0.0000  -0.0000
    -0.0000  -0.0000  -0.0000  -0.0000  -0.0000  -0.0000

          k = 0.5000-0.2500 0.5000 (  1930 PWs)   bands (ev):

     7.8432   9.4895  10.1610  10.4095  10.7299  10.7996  11.1096  11.5901
    11.7914  11.8058  11.9998  12.0422  13.5505  13.5610  13.7605  13.8697
    13.9232  14.2175  14.2532  14.4458  14.7695  15.5719  18.8825  20.1525
    21.6063  23.5879  23.6095  25.3478  27.8174  27.8569

     occupation numbers 
     1.0000   1.0000   1.0000   1.0000   1.0000   1.0000   1.0000   1.0000
     1.0000   1.0000   1.0000   1.0000   1.0000   1.0000   1.0000   1.0000
     1.0000   1.0000   1.0000   1.0000   0.7355  -0.0000  -0.0000  -0.0000
    -0.0000  -0.0000  -0.0000  -0.0000  -0.0000  -0.0000

          k = 0.3750-0.1250 0.3750 (  1930 PWs)   bands (ev):

     6.7580   9.8717  10.0917  10.2164  10.4840  10.6828  11.2584  11.7209
    11.9253  12.0118  12.2811  12.5138  13.4283  13.4880  13.5974  13.8891
    14.0622  14.2297  14.2775  14.3931  14.8514  17.2011  19.0337  21.1675
    21.8725  23.4573  23.4938  24.9078  25.8624  26.0837

     occupation numbers 
     1.0000   1.0000   1.0000   1.0000   1.0000   1.0000   1.0000   1.0000
     1.0000   1.0000   1.0000   1.0000   1.0000   1.0000   1.0000   1.0000
     1.0000   1.0000   1.0000   1.0000  -0.0133  -0.0000  -0.0000  -0.0000
    -0.0000  -0.0000  -0.0000  -0.0000  -0.0000  -0.0000

          k = 0.2500 0.0000 0.2500 (  1943 PWs)   bands (ev):

     5.9379   9.9470   9.9570  10.0266  10.3350  10.4604  11.7185  11.8838
    12.0758  12.1513  12.3300  12.4251  13.3347  13.4136  14.0614  14.1455
    14.2356  14.3117  14.3426  14.3938  14.8167  19.2594  19.7382  22.1819
    22.3864  23.2088  23.4437  23.9477  24.5467  24.9710

     occupation numbers 
     1.0000   1.0000   1.0000   1.0000   1.0000   1.0000   1.0000   1.0000
     1.0000   1.0000   1.0000   1.0000   1.0000   1.0000   1.0000   1.0000
     1.0000   1.0000   1.0000   1.0000   0.1886  -0.0000  -0.0000  -0.0000
    -0.0000  -0.0000  -0.0000  -0.0000  -0.0000  -0.0000

          k = 0.0000 0.5000 0.0000 (  1964 PWs)   bands (ev):

     6.5499   9.6007   9.8709  10.2491  10.5839  10.5839  10.9956  12.1534
    12.1534  12.4688  12.7581  12.7581  13.1817  13.4324  13.9166  13.9314
    13.9314  14.0912  14.3825  14.4592  14.5072  18.6469  18.6469  18.9549
    20.6604  22.2866  25.4569  25.4569  27.7377  28.4413

     occupation numbers 
     1.0000   1.0000   1.0000   1.0000   1.0000   1.0000   1.0000   1.0000
     1.0000   1.0000   1.0000   1.0000   1.0000   1.0000   1.0000   1.0000
     1.0000   1.0000   1.0000   1.0000   1.0000  -0.0000  -0.0000  -0.0000
    -0.0000  -0.0000  -0.0000  -0.0000  -0.0000  -0.0000

          k =-0.1250 0.6250-0.1250 (  1939 PWs)   bands (ev):

     7.3204   9.4177   9.7789  10.4878  10.6622  10.7413  10.9243  12.0523
    12.0575  12.5806  12.7251  12.8237  13.2524  13.4323  13.5829  13.6547
    13.9735  14.0200  14.4131  14.4682  14.5063  16.8807  17.8262  17.8570
    21.0713  22.8177  25.9293  26.1301  28.2112  29.8752

     occupation numbers 
     1.0000   1.0000   1.0000   1.0000   1.0000   1.0000   1.0000   1.0000
     1.0000   1.0000   1.0000   1.0000   1.0000   1.0000   1.0000   1.0000
     1.0000   1.0000   1.0000   1.0000   1.0000  -0.0000  -0.0000  -0.0000
    -0.0000  -0.0000  -0.0000  -0.0000  -0.0000  -0.0000

          k = 0.7500-0.2500 0.7500 (  1923 PWs)   bands (ev):

     8.3155   9.2130   9.7380  10.4922  10.6421  10.9309  11.2908  11.8194
    11.9655  12.2457  12.2711  12.4357  13.3490  13.4505  13.5534  13.7843
    13.9590  14.1216  14.4601  14.5101  14.6961  15.3562  17.0707  17.7300
    21.3331  24.5041  25.7583  26.0928  28.1177  30.2504

     occupation numbers 
     1.0000   1.0000   1.0000   1.0000   1.0000   1.0000   1.0000   1.0000
     1.0000   1.0000   1.0000   1.0000   1.0000   1.0000   1.0000   1.0000
     1.0000   1.0000   1.0000   1.0000   1.0328  -0.0000  -0.0000  -0.0000
    -0.0000  -0.0000  -0.0000  -0.0000  -0.0000  -0.0000

          k = 0.6250-0.1250 0.6250 (  1931 PWs)   bands (ev):

     8.5344   9.3088   9.8497  10.3188  10.6660  10.9040  11.6620  11.6912
    11.8318  11.8756  12.0488  12.2362  13.3955  13.5086  13.5810  13.7062
    14.0473  14.1511  14.2497  14.5203  14.9607  15.2564  16.7206  18.3854
    21.4578  25.2464  25.7955  26.5931  27.7070  27.9182

     occupation numbers 
     1.0000   1.0000   1.0000   1.0000   1.0000   1.0000   1.0000   1.0000
     1.0000   1.0000   1.0000   1.0000   1.0000   1.0000   1.0000   1.0000
     1.0000   1.0000   1.0000   1.0000  -0.0011  -0.0000  -0.0000  -0.0000
    -0.0000  -0.0000  -0.0000  -0.0000  -0.0000  -0.0000

          k = 0.5000 0.0000 0.5000 (  1923 PWs)   bands (ev):

     7.6084   9.7559   9.9379  10.5518  10.5847  10.5873  11.3009  11.6540
    11.7960  11.9643  12.3583  12.4366  13.3803  13.5068  13.5812  13.7043
    13.8436  14.1650  14.2080  14.4171  14.9813  16.6421  16.9438  19.6371
    21.6110  24.9297  25.1514  25.5172  25.7223  28.2237

     occupation numbers 
     1.0000   1.0000   1.0000   1.0000   1.0000   1.0000   1.0000   1.0000
     1.0000   1.0000   1.0000   1.0000   1.0000   1.0000   1.0000   1.0000
     1.0000   1.0000   1.0000   1.0000  -0.0002  -0.0000  -0.0000  -0.0000
    -0.0000  -0.0000  -0.0000  -0.0000  -0.0000  -0.0000

          k = 0.0000 0.7500 0.0000 (  1952 PWs)   bands (ev):

     7.8756   9.1811   9.5721  10.6489  10.7547  10.8002  10.8002  12.1329
    12.1329  12.7223  12.8971  13.3923  13.4719  13.4719  13.6330  13.6358
    13.6358  13.9439  14.2603  14.3720  14.5885  16.3728  16.6512  16.6512
    20.5359  22.2320  27.8245  27.8245  30.5588  30.8610

     occupation numbers 
     1.0000   1.0000   1.0000   1.0000   1.0000   1.0000   1.0000   1.0000
     1.0000   1.0000   1.0000   1.0000   1.0000   1.0000   1.0000   1.0000
     1.0000   1.0000   1.0000   1.0000   1.0001  -0.0000  -0.0000  -0.0000
    -0.0000  -0.0000  -0.0000  -0.0000  -0.0000  -0.0000

          k = 0.8750-0.1250 0.8750 (  1935 PWs)   bands (ev):

     8.5677   9.1062   9.5539  10.2874  10.8476  10.9755  11.0628  11.9792
    12.1276  12.5614  12.8877  13.0392  13.2369  13.4264  13.5539  13.8598
    13.9822  14.1243  14.2246  14.7084  14.7688  15.3588  15.6977  16.1186
    20.9625  22.7253  28.2231  28.4179  30.4679  30.5365

     occupation numbers 
     1.0000   1.0000   1.0000   1.0000   1.0000   1.0000   1.0000   1.0000
     1.0000   1.0000   1.0000   1.0000   1.0000   1.0000   1.0000   1.0000
     1.0000   1.0000   1.0000   1.0353   0.7435  -0.0000  -0.0000  -0.0000
    -0.0000  -0.0000  -0.0000  -0.0000  -0.0000  -0.0000

          k = 0.7500 0.0000 0.7500 (  1926 PWs)   bands (ev):

     8.9845   9.1204   9.8241   9.8566  10.8519  10.9894  11.5004  11.7597
    12.1286  12.2272  12.3300  12.7243  13.2141  13.4408  13.5262  13.7922
    14.0967  14.1200  14.1637  14.7065  15.0873  15.2077  15.3239  16.8394
    21.3107  24.4242  27.7685  27.8024  27.8625  28.5683

     occupation numbers 
     1.0000   1.0000   1.0000   1.0000   1.0000   1.0000   1.0000   1.0000
     1.0000   1.0000   1.0000   1.0000   1.0000   1.0000   1.0000   1.0000
     1.0000   1.0000   1.0000   1.0354  -0.0000  -0.0000  -0.0000  -0.0000
    -0.0000  -0.0000  -0.0000  -0.0000  -0.0000  -0.0000

          k = 0.0000-1.0000 0.0000 (  1964 PWs)   bands (ev):

     8.6730   9.0163   9.7216  10.1120  10.8838  10.8838  11.0584  12.1317
    12.1317  12.6419  12.8603  13.2917  13.2917  13.3312  13.5577  13.8900
    14.1211  14.3676  14.7801  14.7801  14.9662  15.0362  15.1237  15.1237
    20.5303  22.2315  30.3519  30.3519  30.7718  31.1236

     occupation numbers 
     1.0000   1.0000   1.0000   1.0000   1.0000   1.0000   1.0000   1.0000
     1.0000   1.0000   1.0000   1.0000   1.0000   1.0000   1.0000   1.0000
     1.0000   1.0000   0.6145   0.6145  -0.0007  -0.0000  -0.0000  -0.0000
    -0.0000  -0.0000  -0.0000  -0.0000  -0.0000  -0.0000

          k =-0.2500 0.5000 0.0000 (  1936 PWs)   bands (ev):

     6.8337   9.6837   9.9668  10.2907  10.5604  10.6776  11.0793  11.9811
    12.0671  12.1467  12.5585  12.5980  13.3415  13.4587  13.6754  13.7233
    14.0623  14.0830  14.3753  14.3864  14.7689  17.7192  18.0553  19.4357
    22.2590  23.1970  23.7829  25.6470  26.7210  27.2180

     occupation numbers 
     1.0000   1.0000   1.0000   1.0000   1.0000   1.0000   1.0000   1.0000
     1.0000   1.0000   1.0000   1.0000   1.0000   1.0000   1.0000   1.0000
     1.0000   1.0000   1.0000   1.0000   0.7429  -0.0000  -0.0000  -0.0000
    -0.0000  -0.0000  -0.0000  -0.0000  -0.0000  -0.0000

          k = 0.6250-0.3750 0.8750 (  1931 PWs)   bands (ev):

     7.8018   9.5183   9.8853  10.4575  10.6659  10.7865  11.2313  11.8090
    11.8997  11.9488  12.2969  12.4349  13.4047  13.4908  13.5934  13.7298
    13.8873  14.1492  14.3338  14.4474  14.8026  15.9857  17.5670  18.4791
    22.4816  23.4911  24.7445  26.0957  27.3568  28.7621

     occupation numbers 
     1.0000   1.0000   1.0000   1.0000   1.0000   1.0000   1.0000   1.0000
     1.0000   1.0000   1.0000   1.0000   1.0000   1.0000   1.0000   1.0000
     1.0000   1.0000   1.0000   1.0000   0.3388  -0.0000  -0.0000  -0.0000
    -0.0000  -0.0000  -0.0000  -0.0000  -0.0000  -0.0000

          k = 0.5000-0.2500 0.7500 (  1918 PWs)   bands (ev):

     8.6531   9.0429   9.9104  10.3762  10.6977  10.9727  11.5537  11.6820
    11.7917  11.8076  12.0586  12.1053  13.4078  13.5811  13.6348  13.6773
    14.0997  14.2019  14.4415  14.5799  14.7448  14.9770  17.5978  17.9662
    22.4585  23.3911  26.1450  26.4465  27.5629  28.0201

     occupation numbers 
     1.0000   1.0000   1.0000   1.0000   1.0000   1.0000   1.0000   1.0000
     1.0000   1.0000   1.0000   1.0000   1.0000   1.0000   1.0000   1.0000
     1.0000   1.0000   1.0000   1.0001   0.9433  -0.0003  -0.0000  -0.0000
    -0.0000  -0.0000  -0.0000  -0.0000  -0.0000  -0.0000

          k = 0.7500-0.2500 1.0000 (  1936 PWs)   bands (ev):

     8.1001   9.2967   9.5962  10.4487  10.8011  10.8323  11.1263  11.9653
    12.0352  12.4761  12.5157  13.1399  13.1956  13.2938  13.5835  13.6104
    13.9362  14.1590  14.4033  14.5125  14.5896  16.1442  16.4027  16.8341
    21.7684  23.0384  25.6889  27.8898  29.5821  30.0555

     occupation numbers 
     1.0000   1.0000   1.0000   1.0000   1.0000   1.0000   1.0000   1.0000
     1.0000   1.0000   1.0000   1.0000   1.0000   1.0000   1.0000   1.0000
     1.0000   1.0000   1.0000   1.0000   1.0001  -0.0000  -0.0000  -0.0000
    -0.0000  -0.0000  -0.0000  -0.0000  -0.0000  -0.0000

          k = 0.6250-0.1250 0.8750 (  1928 PWs)   bands (ev):

     8.9165   9.1581   9.5961  10.0901  10.8934  11.0090  11.5294  11.8163
    12.0358  12.0907  12.1871  12.7087  13.2718  13.3503  13.6015  13.7243
    14.0460  14.2943  14.4576  14.6777  14.8594  15.0039  15.9618  16.4578
    22.3869  24.5481  25.2167  27.3523  28.4667  30.4092

     occupation numbers 
     1.0000   1.0000   1.0000   1.0000   1.0000   1.0000   1.0000   1.0000
     1.0000   1.0000   1.0000   1.0000   1.0000   1.0000   1.0000   1.0000
     1.0000   1.0000   1.0000   1.0211  -0.0279  -0.0000  -0.0000  -0.0000
    -0.0000  -0.0000  -0.0000  -0.0000  -0.0000  -0.0000

          k = 0.5000 0.0000 0.7500 (  1926 PWs)   bands (ev):

     8.6068   9.4927   9.5818  10.1648  10.8523  10.9257  11.6575  11.7567
    11.8380  12.0005  12.1465  12.4670  13.2644  13.5433  13.6028  13.6307
    13.9935  14.2191  14.3259  14.5143  14.9369  15.6517  15.8497  17.2710
    22.7221  24.6089  25.0701  26.9991  27.8648  29.0261

     occupation numbers 
     1.0000   1.0000   1.0000   1.0000   1.0000   1.0000   1.0000   1.0000
     1.0000   1.0000   1.0000   1.0000   1.0000   1.0000   1.0000   1.0000
     1.0000   1.0000   1.0000   1.0000  -0.0045  -0.0000  -0.0000  -0.0000
    -0.0000  -0.0000  -0.0000  -0.0000  -0.0000  -0.0000

          k =-0.2500-1.0000 0.0000 (  1928 PWs)   bands (ev):

     8.8692   9.1391   9.7304   9.8741  10.9437  11.0445  11.2202  11.9906
    12.0535  12.3615  12.6567  13.0276  13.2103  13.5089  13.5791  13.6640
    14.0403  14.1699  14.8980  14.9001  15.0586  15.1118  15.1512  15.1714
    21.6620  23.0022  27.8237  27.8446  30.6259  30.6958

     occupation numbers 
     1.0000   1.0000   1.0000   1.0000   1.0000   1.0000   1.0000   1.0000
     1.0000   1.0000   1.0000   1.0000   1.0000   1.0000   1.0000   1.0000
     1.0000   1.0000  -0.0232  -0.0218  -0.0000  -0.0000  -0.0000  -0.0000
    -0.0000  -0.0000  -0.0000  -0.0000  -0.0000  -0.0000

          k =-0.5000-1.0000 0.0000 (  1912 PWs)   bands (ev):

     9.1198   9.4675   9.4675   9.7241  11.0176  11.0862  11.7884  11.7884
    11.8456  11.9384  12.4966  12.4966  13.1800  13.5250  13.5250  13.7130
    14.1988  14.5599  14.5599  14.8521  14.9749  15.1953  15.1953  15.2848
    24.3568  24.4329  25.0224  25.0224  30.4286  31.0977

     occupation numbers 
     1.0000   1.0000   1.0000   1.0000   1.0000   1.0000   1.0000   1.0000
     1.0000   1.0000   1.0000   1.0000   1.0000   1.0000   1.0000   1.0000
     1.0000   1.0000   1.0000  -0.0150  -0.0004  -0.0000  -0.0000  -0.0000
    -0.0000  -0.0000  -0.0000  -0.0000  -0.0000  -0.0000

     the Fermi energy is    14.7894 ev

!    total energy              =   -1331.78779823 Ry

     total all-electron energy =    -46220.638883 Ry
     estimated scf accuracy    <          2.6E-09 Ry
     smearing contrib. (-TS)   =      -0.00001354 Ry
     internal energy E=F+TS    =   -1331.78778469 Ry

     The total energy is F=E-TS. E is the sum of the following terms:
     one-electron contribution =     -31.38513834 Ry
     hartree contribution      =      77.34180711 Ry
     xc contribution           =    -152.17408361 Ry
     ewald contribution        =    -280.87531741 Ry
     one-center paw contrib.   =    -944.69505244 Ry
      -> PAW hartree energy AE =     317.71005191 Ry
      -> PAW hartree energy PS =    -316.32140242 Ry
      -> PAW xc energy AE      =   -1098.48781065 Ry
      -> PAW xc energy PS      =     152.40410872 Ry
      -> total E_H with PAW    =      78.73045660 Ry
      -> total E_XC with PAW   =   -1098.25778553 Ry

     convergence has been achieved in  13 iterations

     Writing output data file ././CuPtNi.save/

     init_run     :      3.52s CPU      2.57s WALL (       1 calls)
     electrons    :     91.22s CPU     54.44s WALL (       1 calls)

     Called by init_run:
     wfcinit      :      2.20s CPU      1.36s WALL (       1 calls)
     wfcinit:atom :      0.05s CPU      0.02s WALL (      29 calls)
     wfcinit:wfcr :      1.95s CPU      1.21s WALL (      29 calls)
     potinit      :      0.45s CPU      0.45s WALL (       1 calls)
     hinit0       :      0.70s CPU      0.65s WALL (       1 calls)

     Called by electrons:
     c_bands      :     69.11s CPU     38.77s WALL (      13 calls)
     sum_band     :     14.01s CPU      8.31s WALL (      13 calls)
     v_of_rho     :      0.44s CPU      0.27s WALL (      14 calls)
     v_h          :      0.02s CPU      0.01s WALL (      14 calls)
     v_xc         :      0.42s CPU      0.26s WALL (      14 calls)
     newd         :      1.36s CPU      1.13s WALL (      14 calls)
     PAW_pot      :      6.78s CPU      6.40s WALL (      14 calls)
     mix_rho      :      0.07s CPU      0.04s WALL (      13 calls)

     Called by c_bands:
     init_us_2    :      1.65s CPU      0.80s WALL (     783 calls)
     cegterg      :     62.34s CPU     34.95s WALL (     377 calls)

     Called by sum_band:
     sum_band:wei :      0.04s CPU      0.01s WALL (      13 calls)
     sum_band:loo :     11.26s CPU      6.92s WALL (      13 calls)
     sum_band:buf :      0.08s CPU      0.04s WALL (     377 calls)
     sum_band:ini :      0.72s CPU      0.39s WALL (     377 calls)
     sum_band:cal :      0.40s CPU      0.32s WALL (     377 calls)
     sum_band:bec :      0.01s CPU      0.01s WALL (     377 calls)
     addusdens    :      2.62s CPU      1.32s WALL (      13 calls)
     addusd:skk   :      0.01s CPU      0.00s WALL (      39 calls)
     addusd:dgemm :      1.43s CPU      0.54s WALL (      39 calls)
     addusd:qvan2 :      1.00s CPU      0.62s WALL (      39 calls)

     Called by *egterg:
     cdiaghg      :      3.65s CPU      1.53s WALL (    1711 calls)
     cegterg:over :      1.58s CPU      0.59s WALL (    1334 calls)
     cegterg:upda :      1.23s CPU      0.46s WALL (    1334 calls)
     cegterg:last :      1.97s CPU      0.70s WALL (     797 calls)
     h_psi        :     52.92s CPU     31.68s WALL (    1740 calls)
     s_psi        :      1.31s CPU      0.56s WALL (    1740 calls)
     g_psi        :      0.57s CPU      0.21s WALL (    1334 calls)

     Called by h_psi:
     h_psi:calbec :      1.29s CPU      0.88s WALL (    1740 calls)
     vloc_psi     :     49.90s CPU     29.99s WALL (    1740 calls)
     add_vuspsi   :      1.36s CPU      0.66s WALL (    1740 calls)

     General routines
     calbec       :      1.69s CPU      1.19s WALL (    2117 calls)
     fft          :      0.19s CPU      0.12s WALL (     154 calls)
     ffts         :      0.01s CPU      0.01s WALL (      13 calls)
     fftw         :     51.73s CPU     31.25s WALL (   70610 calls)

     Parallel routines

     PAW routines
     PAW_pot      :      6.78s CPU      6.40s WALL (      14 calls)
     PAW_symme    :      0.03s CPU      0.03s WALL (      27 calls)

     PWSCF        :   1m34.99s CPU     57.28s WALL


   This run was terminated on:  13:50:44  22May2024            

=------------------------------------------------------------------------------=
   JOB DONE.
=------------------------------------------------------------------------------=
