
     Program PWSCF v.6.7MaX starts on 22May2024 at 13:51:43 

     This program is part of the open-source Quantum ESPRESSO suite
     for quantum simulation of materials; please cite
         "P. Giannozzi et al., J. Phys.:Condens. Matter 21 395502 (2009);
         "P. Giannozzi et al., J. Phys.:Condens. Matter 29 465901 (2017);
          URL http://www.quantum-espresso.org", 
     in publications or presentations arising from this work. More details at
     http://www.quantum-espresso.org/quote

     Parallel version (MPI), running on     1 processors

     MPI processes distributed on     1 nodes
     Waiting for input...
     Reading input from standard input

     Current dimensions of program PWSCF are:
     Max number of different atomic species (ntypx) = 10
     Max number of k-points (npk) =  40000
     Max angular momentum in pseudopotentials (lmaxx) =  3
     file Cu.UPF: wavefunction(s)  4S 3D renormalized
     file Pt.UPF: wavefunction(s)  6S 5D renormalized
     file Ni.UPF: wavefunction(s)  4S 3D renormalized

     Subspace diagonalization in iterative solution of the eigenvalue problem:
     a serial algorithm will be used


     G-vector sticks info
     --------------------
     sticks:   dense  smooth     PW     G-vecs:    dense   smooth      PW
     Sum         847     847    253                16361    16361    2733



     bravais-lattice index     =            2
     lattice parameter (alat)  =      11.1000  a.u.
     unit-cell volume          =     341.9077 (a.u.)^3
     number of atoms/cell      =            4
     number of atomic types    =            3
     number of electrons       =        41.00
     number of Kohn-Sham states=           30
     kinetic-energy cutoff     =      50.0000  Ry
     charge density cutoff     =     200.0000  Ry
     scf convergence threshold =      1.0E-07
     mixing beta               =       0.7000
     number of iterations used =            8  plain     mixing
     Exchange-correlation= SLA  PW   PBX  PBC
                           (   1   4   3   4   0   0   0)

     celldm(1)=  11.100000  celldm(2)=   0.000000  celldm(3)=   0.000000
     celldm(4)=   0.000000  celldm(5)=   0.000000  celldm(6)=   0.000000

     crystal axes: (cart. coord. in units of alat)
               a(1) = (  -0.500000   0.000000   0.500000 )  
               a(2) = (   0.000000   0.500000   0.500000 )  
               a(3) = (  -0.500000   0.500000   0.000000 )  

     reciprocal axes: (cart. coord. in units 2 pi/alat)
               b(1) = ( -1.000000 -1.000000  1.000000 )  
               b(2) = (  1.000000  1.000000  1.000000 )  
               b(3) = ( -1.000000  1.000000 -1.000000 )  


     PseudoPot. # 1 for Cu read from file:
     ././Cu.UPF
     MD5 check sum: cfffd1f38ee05704b3e17f46f1730a6f
     Pseudo is Projector augmented-wave + core cor, Zval = 11.0
     Generated using &quot;atomic&quot; code by A. Dal Corso  v.6.3
     Shape of augmentation charge: PSQ
     Using radial grid of 1199 points,  6 beta functions with: 
                l(1) =   0
                l(2) =   0
                l(3) =   1
                l(4) =   1
                l(5) =   2
                l(6) =   2
     Q(r) pseudized with 0 coefficients 


     PseudoPot. # 2 for Pt read from file:
     ././Pt.UPF
     MD5 check sum: c5224e9cd7a5e36e81f2def9f50bb494
     Pseudo is Projector augmented-wave + core cor, Zval = 10.0
     Generated using &quot;atomic&quot; code by A. Dal Corso  v.6.3
     Shape of augmentation charge: PSQ
     Using radial grid of 1277 points,  6 beta functions with: 
                l(1) =   0
                l(2) =   0
                l(3) =   1
                l(4) =   1
                l(5) =   2
                l(6) =   2
     Q(r) pseudized with 0 coefficients 


     PseudoPot. # 3 for Ni read from file:
     ././Ni.UPF
     MD5 check sum: 5bc40517020091042a126ac2b4ecef1e
     Pseudo is Projector augmented-wave + core cor, Zval = 10.0
     Generated using "atomic" code by A. Dal Corso  v.5.0.2 svn rev. 9415
     Shape of augmentation charge: PSQ
     Using radial grid of 1195 points,  6 beta functions with: 
                l(1) =   0
                l(2) =   0
                l(3) =   1
                l(4) =   1
                l(5) =   2
                l(6) =   2
     Q(r) pseudized with 0 coefficients 


     atomic species   valence    mass     pseudopotential
        Cu            11.00    63.54600     Cu( 1.00)
        Pt            10.00   195.08000     Pt( 1.00)
        Ni            10.00    58.69000     Ni( 1.00)

     48 Sym. Ops., with inversion, found


                                    s                        frac. trans.

      isym =  1     identity                                     

 cryst.   s( 1) = (     1          0          0      )
                  (     0          1          0      )
                  (     0          0          1      )

 cart.    s( 1) = (  1.0000000  0.0000000  0.0000000 )
                  (  0.0000000  1.0000000  0.0000000 )
                  (  0.0000000  0.0000000  1.0000000 )


      isym =  2     180 deg rotation - cart. axis [0,0,1]        

 cryst.   s( 2) = (     0          1         -1      )
                  (     1          0         -1      )
                  (     0          0         -1      )

 cart.    s( 2) = ( -1.0000000  0.0000000  0.0000000 )
                  (  0.0000000 -1.0000000  0.0000000 )
                  (  0.0000000  0.0000000  1.0000000 )


      isym =  3     180 deg rotation - cart. axis [0,1,0]        

 cryst.   s( 3) = (    -1          0          0      )
                  (    -1          0          1      )
                  (    -1          1          0      )

 cart.    s( 3) = ( -1.0000000  0.0000000  0.0000000 )
                  (  0.0000000  1.0000000  0.0000000 )
                  (  0.0000000  0.0000000 -1.0000000 )


      isym =  4     180 deg rotation - cart. axis [1,0,0]        

 cryst.   s( 4) = (     0         -1          1      )
                  (     0         -1          0      )
                  (     1         -1          0      )

 cart.    s( 4) = (  1.0000000  0.0000000  0.0000000 )
                  (  0.0000000 -1.0000000  0.0000000 )
                  (  0.0000000  0.0000000 -1.0000000 )


      isym =  5     180 deg rotation - cart. axis [1,1,0]        

 cryst.   s( 5) = (     0         -1          0      )
                  (    -1          0          0      )
                  (     0          0         -1      )

 cart.    s( 5) = (  0.0000000  1.0000000  0.0000000 )
                  (  1.0000000  0.0000000  0.0000000 )
                  (  0.0000000  0.0000000 -1.0000000 )


      isym =  6     180 deg rotation - cart. axis [1,-1,0]       

 cryst.   s( 6) = (    -1          0          1      )
                  (     0         -1          1      )
                  (     0          0          1      )

 cart.    s( 6) = (  0.0000000 -1.0000000  0.0000000 )
                  ( -1.0000000  0.0000000  0.0000000 )
                  (  0.0000000  0.0000000 -1.0000000 )


      isym =  7      90 deg rotation - cart. axis [0,0,-1]       

 cryst.   s( 7) = (     0          1          0      )
                  (     0          1         -1      )
                  (    -1          1          0      )

 cart.    s( 7) = (  0.0000000  1.0000000  0.0000000 )
                  ( -1.0000000  0.0000000  0.0000000 )
                  (  0.0000000  0.0000000  1.0000000 )


      isym =  8      90 deg rotation - cart. axis [0,0,1]        

 cryst.   s( 8) = (     1          0         -1      )
                  (     1          0          0      )
                  (     1         -1          0      )

 cart.    s( 8) = (  0.0000000 -1.0000000  0.0000000 )
                  (  1.0000000  0.0000000  0.0000000 )
                  (  0.0000000  0.0000000  1.0000000 )


      isym =  9     180 deg rotation - cart. axis [1,0,1]        

 cryst.   s( 9) = (    -1          0          0      )
                  (     0          0         -1      )
                  (     0         -1          0      )

 cart.    s( 9) = (  0.0000000  0.0000000  1.0000000 )
                  (  0.0000000 -1.0000000  0.0000000 )
                  (  1.0000000  0.0000000  0.0000000 )


      isym = 10     180 deg rotation - cart. axis [-1,0,1]       

 cryst.   s(10) = (     1          0          0      )
                  (     1         -1          0      )
                  (     1          0         -1      )

 cart.    s(10) = (  0.0000000  0.0000000 -1.0000000 )
                  (  0.0000000 -1.0000000  0.0000000 )
                  ( -1.0000000  0.0000000  0.0000000 )


      isym = 11      90 deg rotation - cart. axis [0,1,0]        

 cryst.   s(11) = (     0          1         -1      )
                  (    -1          1          0      )
                  (     0          1          0      )

 cart.    s(11) = (  0.0000000  0.0000000  1.0000000 )
                  (  0.0000000  1.0000000  0.0000000 )
                  ( -1.0000000  0.0000000  0.0000000 )


      isym = 12      90 deg rotation - cart. axis [0,-1,0]       

 cryst.   s(12) = (     0         -1          1      )
                  (     0          0          1      )
                  (    -1          0          1      )

 cart.    s(12) = (  0.0000000  0.0000000 -1.0000000 )
                  (  0.0000000  1.0000000  0.0000000 )
                  (  1.0000000  0.0000000  0.0000000 )


      isym = 13     180 deg rotation - cart. axis [0,1,1]        

 cryst.   s(13) = (    -1          1          0      )
                  (     0          1          0      )
                  (     0          1         -1      )

 cart.    s(13) = ( -1.0000000  0.0000000  0.0000000 )
                  (  0.0000000  0.0000000  1.0000000 )
                  (  0.0000000  1.0000000  0.0000000 )


      isym = 14     180 deg rotation - cart. axis [0,1,-1]       

 cryst.   s(14) = (     0          0         -1      )
                  (     0         -1          0      )
                  (    -1          0          0      )

 cart.    s(14) = ( -1.0000000  0.0000000  0.0000000 )
                  (  0.0000000  0.0000000 -1.0000000 )
                  (  0.0000000 -1.0000000  0.0000000 )


      isym = 15      90 deg rotation - cart. axis [-1,0,0]       

 cryst.   s(15) = (     0          0          1      )
                  (    -1          0          1      )
                  (     0         -1          1      )

 cart.    s(15) = (  1.0000000  0.0000000  0.0000000 )
                  (  0.0000000  0.0000000  1.0000000 )
                  (  0.0000000 -1.0000000  0.0000000 )


      isym = 16      90 deg rotation - cart. axis [1,0,0]        

 cryst.   s(16) = (     1         -1          0      )
                  (     1          0         -1      )
                  (     1          0          0      )

 cart.    s(16) = (  1.0000000  0.0000000  0.0000000 )
                  (  0.0000000  0.0000000 -1.0000000 )
                  (  0.0000000  1.0000000  0.0000000 )


      isym = 17     120 deg rotation - cart. axis [-1,-1,-1]     

 cryst.   s(17) = (    -1          0          1      )
                  (    -1          1          0      )
                  (    -1          0          0      )

 cart.    s(17) = (  0.0000000  1.0000000  0.0000000 )
                  (  0.0000000  0.0000000  1.0000000 )
                  (  1.0000000  0.0000000  0.0000000 )


      isym = 18     120 deg rotation - cart. axis [-1,1,1]       

 cryst.   s(18) = (     0          1          0      )
                  (     0          0          1      )
                  (     1          0          0      )

 cart.    s(18) = (  0.0000000 -1.0000000  0.0000000 )
                  (  0.0000000  0.0000000  1.0000000 )
                  ( -1.0000000  0.0000000  0.0000000 )


      isym = 19     120 deg rotation - cart. axis [1,1,-1]       

 cryst.   s(19) = (     1          0         -1      )
                  (     0          0         -1      )
                  (     0          1         -1      )

 cart.    s(19) = (  0.0000000  1.0000000  0.0000000 )
                  (  0.0000000  0.0000000 -1.0000000 )
                  ( -1.0000000  0.0000000  0.0000000 )


      isym = 20     120 deg rotation - cart. axis [1,-1,1]       

 cryst.   s(20) = (     0         -1          0      )
                  (     1         -1          0      )
                  (     0         -1          1      )

 cart.    s(20) = (  0.0000000 -1.0000000  0.0000000 )
                  (  0.0000000  0.0000000 -1.0000000 )
                  (  1.0000000  0.0000000  0.0000000 )


      isym = 21     120 deg rotation - cart. axis [1,1,1]        

 cryst.   s(21) = (     0          0         -1      )
                  (     0          1         -1      )
                  (     1          0         -1      )

 cart.    s(21) = (  0.0000000  0.0000000  1.0000000 )
                  (  1.0000000  0.0000000  0.0000000 )
                  (  0.0000000  1.0000000  0.0000000 )


      isym = 22     120 deg rotation - cart. axis [-1,1,-1]      

 cryst.   s(22) = (    -1          1          0      )
                  (    -1          0          0      )
                  (    -1          0          1      )

 cart.    s(22) = (  0.0000000  0.0000000  1.0000000 )
                  ( -1.0000000  0.0000000  0.0000000 )
                  (  0.0000000 -1.0000000  0.0000000 )


      isym = 23     120 deg rotation - cart. axis [1,-1,-1]      

 cryst.   s(23) = (     0          0          1      )
                  (     1          0          0      )
                  (     0          1          0      )

 cart.    s(23) = (  0.0000000  0.0000000 -1.0000000 )
                  ( -1.0000000  0.0000000  0.0000000 )
                  (  0.0000000  1.0000000  0.0000000 )


      isym = 24     120 deg rotation - cart. axis [-1,-1,1]      

 cryst.   s(24) = (     1         -1          0      )
                  (     0         -1          1      )
                  (     0         -1          0      )

 cart.    s(24) = (  0.0000000  0.0000000 -1.0000000 )
                  (  1.0000000  0.0000000  0.0000000 )
                  (  0.0000000 -1.0000000  0.0000000 )


      isym = 25     inversion                                    

 cryst.   s(25) = (    -1          0          0      )
                  (     0         -1          0      )
                  (     0          0         -1      )

 cart.    s(25) = ( -1.0000000  0.0000000  0.0000000 )
                  (  0.0000000 -1.0000000  0.0000000 )
                  (  0.0000000  0.0000000 -1.0000000 )


      isym = 26     inv. 180 deg rotation - cart. axis [0,0,1]   

 cryst.   s(26) = (     0         -1          1      )
                  (    -1          0          1      )
                  (     0          0          1      )

 cart.    s(26) = (  1.0000000  0.0000000  0.0000000 )
                  (  0.0000000  1.0000000  0.0000000 )
                  (  0.0000000  0.0000000 -1.0000000 )


      isym = 27     inv. 180 deg rotation - cart. axis [0,1,0]   

 cryst.   s(27) = (     1          0          0      )
                  (     1          0         -1      )
                  (     1         -1          0      )

 cart.    s(27) = (  1.0000000  0.0000000  0.0000000 )
                  (  0.0000000 -1.0000000  0.0000000 )
                  (  0.0000000  0.0000000  1.0000000 )


      isym = 28     inv. 180 deg rotation - cart. axis [1,0,0]   

 cryst.   s(28) = (     0          1         -1      )
                  (     0          1          0      )
                  (    -1          1          0      )

 cart.    s(28) = ( -1.0000000  0.0000000  0.0000000 )
                  (  0.0000000  1.0000000  0.0000000 )
                  (  0.0000000  0.0000000  1.0000000 )


      isym = 29     inv. 180 deg rotation - cart. axis [1,1,0]   

 cryst.   s(29) = (     0          1          0      )
                  (     1          0          0      )
                  (     0          0          1      )

 cart.    s(29) = (  0.0000000 -1.0000000  0.0000000 )
                  ( -1.0000000  0.0000000  0.0000000 )
                  (  0.0000000  0.0000000  1.0000000 )


      isym = 30     inv. 180 deg rotation - cart. axis [1,-1,0]  

 cryst.   s(30) = (     1          0         -1      )
                  (     0          1         -1      )
                  (     0          0         -1      )

 cart.    s(30) = (  0.0000000  1.0000000  0.0000000 )
                  (  1.0000000  0.0000000  0.0000000 )
                  (  0.0000000  0.0000000  1.0000000 )


      isym = 31     inv.  90 deg rotation - cart. axis [0,0,-1]  

 cryst.   s(31) = (     0         -1          0      )
                  (     0         -1          1      )
                  (     1         -1          0      )

 cart.    s(31) = (  0.0000000 -1.0000000  0.0000000 )
                  (  1.0000000  0.0000000  0.0000000 )
                  (  0.0000000  0.0000000 -1.0000000 )


      isym = 32     inv.  90 deg rotation - cart. axis [0,0,1]   

 cryst.   s(32) = (    -1          0          1      )
                  (    -1          0          0      )
                  (    -1          1          0      )

 cart.    s(32) = (  0.0000000  1.0000000  0.0000000 )
                  ( -1.0000000  0.0000000  0.0000000 )
                  (  0.0000000  0.0000000 -1.0000000 )


      isym = 33     inv. 180 deg rotation - cart. axis [1,0,1]   

 cryst.   s(33) = (     1          0          0      )
                  (     0          0          1      )
                  (     0          1          0      )

 cart.    s(33) = (  0.0000000  0.0000000 -1.0000000 )
                  (  0.0000000  1.0000000  0.0000000 )
                  ( -1.0000000  0.0000000  0.0000000 )


      isym = 34     inv. 180 deg rotation - cart. axis [-1,0,1]  

 cryst.   s(34) = (    -1          0          0      )
                  (    -1          1          0      )
                  (    -1          0          1      )

 cart.    s(34) = (  0.0000000  0.0000000  1.0000000 )
                  (  0.0000000  1.0000000  0.0000000 )
                  (  1.0000000  0.0000000  0.0000000 )


      isym = 35     inv.  90 deg rotation - cart. axis [0,1,0]   

 cryst.   s(35) = (     0         -1          1      )
                  (     1         -1          0      )
                  (     0         -1          0      )

 cart.    s(35) = (  0.0000000  0.0000000 -1.0000000 )
                  (  0.0000000 -1.0000000  0.0000000 )
                  (  1.0000000  0.0000000  0.0000000 )


      isym = 36     inv.  90 deg rotation - cart. axis [0,-1,0]  

 cryst.   s(36) = (     0          1         -1      )
                  (     0          0         -1      )
                  (     1          0         -1      )

 cart.    s(36) = (  0.0000000  0.0000000  1.0000000 )
                  (  0.0000000 -1.0000000  0.0000000 )
                  ( -1.0000000  0.0000000  0.0000000 )


      isym = 37     inv. 180 deg rotation - cart. axis [0,1,1]   

 cryst.   s(37) = (     1         -1          0      )
                  (     0         -1          0      )
                  (     0         -1          1      )

 cart.    s(37) = (  1.0000000  0.0000000  0.0000000 )
                  (  0.0000000  0.0000000 -1.0000000 )
                  (  0.0000000 -1.0000000  0.0000000 )


      isym = 38     inv. 180 deg rotation - cart. axis [0,1,-1]  

 cryst.   s(38) = (     0          0          1      )
                  (     0          1          0      )
                  (     1          0          0      )

 cart.    s(38) = (  1.0000000  0.0000000  0.0000000 )
                  (  0.0000000  0.0000000  1.0000000 )
                  (  0.0000000  1.0000000  0.0000000 )


      isym = 39     inv.  90 deg rotation - cart. axis [-1,0,0]  

 cryst.   s(39) = (     0          0         -1      )
                  (     1          0         -1      )
                  (     0          1         -1      )

 cart.    s(39) = ( -1.0000000  0.0000000  0.0000000 )
                  (  0.0000000  0.0000000 -1.0000000 )
                  (  0.0000000  1.0000000  0.0000000 )


      isym = 40     inv.  90 deg rotation - cart. axis [1,0,0]   

 cryst.   s(40) = (    -1          1          0      )
                  (    -1          0          1      )
                  (    -1          0          0      )

 cart.    s(40) = ( -1.0000000  0.0000000  0.0000000 )
                  (  0.0000000  0.0000000  1.0000000 )
                  (  0.0000000 -1.0000000  0.0000000 )


      isym = 41     inv. 120 deg rotation - cart. axis [-1,-1,-1]

 cryst.   s(41) = (     1          0         -1      )
                  (     1         -1          0      )
                  (     1          0          0      )

 cart.    s(41) = (  0.0000000 -1.0000000  0.0000000 )
                  (  0.0000000  0.0000000 -1.0000000 )
                  ( -1.0000000  0.0000000  0.0000000 )


      isym = 42     inv. 120 deg rotation - cart. axis [-1,1,1]  

 cryst.   s(42) = (     0         -1          0      )
                  (     0          0         -1      )
                  (    -1          0          0      )

 cart.    s(42) = (  0.0000000  1.0000000  0.0000000 )
                  (  0.0000000  0.0000000 -1.0000000 )
                  (  1.0000000  0.0000000  0.0000000 )


      isym = 43     inv. 120 deg rotation - cart. axis [1,1,-1]  

 cryst.   s(43) = (    -1          0          1      )
                  (     0          0          1      )
                  (     0         -1          1      )

 cart.    s(43) = (  0.0000000 -1.0000000  0.0000000 )
                  (  0.0000000  0.0000000  1.0000000 )
                  (  1.0000000  0.0000000  0.0000000 )


      isym = 44     inv. 120 deg rotation - cart. axis [1,-1,1]  

 cryst.   s(44) = (     0          1          0      )
                  (    -1          1          0      )
                  (     0          1         -1      )

 cart.    s(44) = (  0.0000000  1.0000000  0.0000000 )
                  (  0.0000000  0.0000000  1.0000000 )
                  ( -1.0000000  0.0000000  0.0000000 )


      isym = 45     inv. 120 deg rotation - cart. axis [1,1,1]   

 cryst.   s(45) = (     0          0          1      )
                  (     0         -1          1      )
                  (    -1          0          1      )

 cart.    s(45) = (  0.0000000  0.0000000 -1.0000000 )
                  ( -1.0000000  0.0000000  0.0000000 )
                  (  0.0000000 -1.0000000  0.0000000 )


      isym = 46     inv. 120 deg rotation - cart. axis [-1,1,-1] 

 cryst.   s(46) = (     1         -1          0      )
                  (     1          0          0      )
                  (     1          0         -1      )

 cart.    s(46) = (  0.0000000  0.0000000 -1.0000000 )
                  (  1.0000000  0.0000000  0.0000000 )
                  (  0.0000000  1.0000000  0.0000000 )


      isym = 47     inv. 120 deg rotation - cart. axis [1,-1,-1] 

 cryst.   s(47) = (     0          0         -1      )
                  (    -1          0          0      )
                  (     0         -1          0      )

 cart.    s(47) = (  0.0000000  0.0000000  1.0000000 )
                  (  1.0000000  0.0000000  0.0000000 )
                  (  0.0000000 -1.0000000  0.0000000 )


      isym = 48     inv. 120 deg rotation - cart. axis [-1,-1,1] 

 cryst.   s(48) = (    -1          1          0      )
                  (     0          1         -1      )
                  (     0          1          0      )

 cart.    s(48) = (  0.0000000  0.0000000  1.0000000 )
                  ( -1.0000000  0.0000000  0.0000000 )
                  (  0.0000000  1.0000000  0.0000000 )


     point group O_h (m-3m) 
     there are 10 classes
     the character table:

       E     8C3   3C2   6C4   6C2'  i     8S6   3s_h  6S4   6s_d 
A_1g   1.00  1.00  1.00  1.00  1.00  1.00  1.00  1.00  1.00  1.00
A_2g   1.00  1.00  1.00 -1.00 -1.00  1.00  1.00  1.00 -1.00 -1.00
E_g    2.00 -1.00  2.00  0.00  0.00  2.00 -1.00  2.00  0.00  0.00
T_1g   3.00  0.00 -1.00  1.00 -1.00  3.00  0.00 -1.00  1.00 -1.00
T_2g   3.00  0.00 -1.00 -1.00  1.00  3.00  0.00 -1.00 -1.00  1.00
A_1u   1.00  1.00  1.00  1.00  1.00 -1.00 -1.00 -1.00 -1.00 -1.00
A_2u   1.00  1.00  1.00 -1.00 -1.00 -1.00 -1.00 -1.00  1.00  1.00
E_u    2.00 -1.00  2.00  0.00  0.00 -2.00  1.00 -2.00  0.00  0.00
T_1u   3.00  0.00 -1.00  1.00 -1.00 -3.00  0.00  1.00 -1.00  1.00
T_2u   3.00  0.00 -1.00 -1.00  1.00 -3.00  0.00  1.00  1.00 -1.00

     the symmetry operations in each class and the name of the first element:

     E        1
          identity                                               
     8C3     17   19   20   18   24   21   22   23
          120 deg rotation - cart. axis [-1,-1,-1]               
     3C2      2    4    3
          180 deg rotation - cart. axis [0,0,1]                  
     6C4      7    8   15   16   12   11
           90 deg rotation - cart. axis [0,0,-1]                 
     6C2'     5    6   14   13   10    9
          180 deg rotation - cart. axis [1,1,0]                  
     i       25
          inversion                                              
     8S6     41   43   44   42   48   45   46   47
          inv. 120 deg rotation - cart. axis [-1,-1,-1]          
     3s_h    26   28   27
          inv. 180 deg rotation - cart. axis [0,0,1]             
     6S4     31   32   39   40   36   35
          inv.  90 deg rotation - cart. axis [0,0,-1]            
     6s_d    29   30   38   37   34   33
          inv. 180 deg rotation - cart. axis [1,1,0]             

   Cartesian axes

     site n.     atom                  positions (alat units)
         1           Cu  tau(   1) = (   0.0000000   0.0000000   0.0000000  )
         2           Pt  tau(   2) = (   0.5000000   0.5000000   0.5000000  )
         3           Ni  tau(   3) = (   0.2500000   0.2500000   0.2500000  )
         4           Ni  tau(   4) = (   0.7500000   0.7500000   0.7500000  )

   Crystallographic axes

     site n.     atom                  positions (cryst. coord.)
         1           Cu  tau(   1) = (  0.0000000  0.0000000  0.0000000  )
         2           Pt  tau(   2) = ( -0.5000000  1.5000000 -0.5000000  )
         3           Ni  tau(   3) = ( -0.2500000  0.7500000 -0.2500000  )
         4           Ni  tau(   4) = ( -0.7500000  2.2500000 -0.7500000  )

     number of k points=    29  Methfessel-Paxton smearing, width (Ry)=  0.0050
                       cart. coord. in units 2pi/alat
        k(    1) = (   0.0000000   0.0000000   0.0000000), wk =   0.0039062
        k(    2) = (  -0.1250000   0.1250000  -0.1250000), wk =   0.0312500
        k(    3) = (  -0.2500000   0.2500000  -0.2500000), wk =   0.0312500
        k(    4) = (  -0.3750000   0.3750000  -0.3750000), wk =   0.0312500
        k(    5) = (   0.5000000  -0.5000000   0.5000000), wk =   0.0156250
        k(    6) = (   0.0000000   0.2500000   0.0000000), wk =   0.0234375
        k(    7) = (  -0.1250000   0.3750000  -0.1250000), wk =   0.0937500
        k(    8) = (  -0.2500000   0.5000000  -0.2500000), wk =   0.0937500
        k(    9) = (   0.6250000  -0.3750000   0.6250000), wk =   0.0937500
        k(   10) = (   0.5000000  -0.2500000   0.5000000), wk =   0.0937500
        k(   11) = (   0.3750000  -0.1250000   0.3750000), wk =   0.0937500
        k(   12) = (   0.2500000   0.0000000   0.2500000), wk =   0.0468750
        k(   13) = (   0.0000000   0.5000000   0.0000000), wk =   0.0234375
        k(   14) = (  -0.1250000   0.6250000  -0.1250000), wk =   0.0937500
        k(   15) = (   0.7500000  -0.2500000   0.7500000), wk =   0.0937500
        k(   16) = (   0.6250000  -0.1250000   0.6250000), wk =   0.0937500
        k(   17) = (   0.5000000   0.0000000   0.5000000), wk =   0.0468750
        k(   18) = (   0.0000000   0.7500000   0.0000000), wk =   0.0234375
        k(   19) = (   0.8750000  -0.1250000   0.8750000), wk =   0.0937500
        k(   20) = (   0.7500000   0.0000000   0.7500000), wk =   0.0468750
        k(   21) = (   0.0000000  -1.0000000   0.0000000), wk =   0.0117188
        k(   22) = (  -0.2500000   0.5000000   0.0000000), wk =   0.0937500
        k(   23) = (   0.6250000  -0.3750000   0.8750000), wk =   0.1875000
        k(   24) = (   0.5000000  -0.2500000   0.7500000), wk =   0.0937500
        k(   25) = (   0.7500000  -0.2500000   1.0000000), wk =   0.0937500
        k(   26) = (   0.6250000  -0.1250000   0.8750000), wk =   0.1875000
        k(   27) = (   0.5000000   0.0000000   0.7500000), wk =   0.0937500
        k(   28) = (  -0.2500000  -1.0000000   0.0000000), wk =   0.0468750
        k(   29) = (  -0.5000000  -1.0000000   0.0000000), wk =   0.0234375

                       cryst. coord.
        k(    1) = (   0.0000000   0.0000000   0.0000000), wk =   0.0039062
        k(    2) = (   0.0000000   0.0000000   0.1250000), wk =   0.0312500
        k(    3) = (   0.0000000   0.0000000   0.2500000), wk =   0.0312500
        k(    4) = (   0.0000000   0.0000000   0.3750000), wk =   0.0312500
        k(    5) = (   0.0000000   0.0000000  -0.5000000), wk =   0.0156250
        k(    6) = (   0.0000000   0.1250000   0.1250000), wk =   0.0234375
        k(    7) = (   0.0000000   0.1250000   0.2500000), wk =   0.0937500
        k(    8) = (   0.0000000   0.1250000   0.3750000), wk =   0.0937500
        k(    9) = (   0.0000000   0.1250000  -0.5000000), wk =   0.0937500
        k(   10) = (   0.0000000   0.1250000  -0.3750000), wk =   0.0937500
        k(   11) = (   0.0000000   0.1250000  -0.2500000), wk =   0.0937500
        k(   12) = (   0.0000000   0.1250000  -0.1250000), wk =   0.0468750
        k(   13) = (   0.0000000   0.2500000   0.2500000), wk =   0.0234375
        k(   14) = (   0.0000000   0.2500000   0.3750000), wk =   0.0937500
        k(   15) = (   0.0000000   0.2500000  -0.5000000), wk =   0.0937500
        k(   16) = (   0.0000000   0.2500000  -0.3750000), wk =   0.0937500
        k(   17) = (   0.0000000   0.2500000  -0.2500000), wk =   0.0468750
        k(   18) = (   0.0000000   0.3750000   0.3750000), wk =   0.0234375
        k(   19) = (   0.0000000   0.3750000  -0.5000000), wk =   0.0937500
        k(   20) = (   0.0000000   0.3750000  -0.3750000), wk =   0.0468750
        k(   21) = (   0.0000000  -0.5000000  -0.5000000), wk =   0.0117188
        k(   22) = (   0.1250000   0.2500000   0.3750000), wk =   0.0937500
        k(   23) = (   0.1250000   0.2500000  -0.5000000), wk =   0.1875000
        k(   24) = (   0.1250000   0.2500000  -0.3750000), wk =   0.0937500
        k(   25) = (   0.1250000   0.3750000  -0.5000000), wk =   0.0937500
        k(   26) = (   0.1250000   0.3750000  -0.3750000), wk =   0.1875000
        k(   27) = (   0.1250000   0.3750000  -0.2500000), wk =   0.0937500
        k(   28) = (   0.1250000  -0.5000000  -0.3750000), wk =   0.0468750
        k(   29) = (   0.2500000  -0.5000000  -0.2500000), wk =   0.0234375

     Dense  grid:    16361 G-vectors     FFT dimensions: (  36,  36,  36)

     Dynamical RAM for                 wfc:       0.93 MB

     Dynamical RAM for     wfc (w. buffer):      28.03 MB

     Dynamical RAM for           str. fact:       0.75 MB

     Dynamical RAM for           local pot:       0.00 MB

     Dynamical RAM for          nlocal pot:       2.24 MB

     Dynamical RAM for                qrad:       3.41 MB

     Dynamical RAM for          rho,v,vnew:       1.82 MB

     Dynamical RAM for               rhoin:       0.61 MB

     Dynamical RAM for            rho*nmix:       3.99 MB

     Dynamical RAM for           G-vectors:       1.06 MB

     Dynamical RAM for          h,s,v(r/c):       0.16 MB

     Dynamical RAM for          <psi|beta>:       0.03 MB

     Dynamical RAM for                 psi:       1.87 MB

     Dynamical RAM for                hpsi:       1.87 MB

     Dynamical RAM for                spsi:       1.87 MB

     Dynamical RAM for      wfcinit/wfcrot:       2.27 MB

     Dynamical RAM for           addusdens:      46.93 MB

     Estimated static dynamical RAM per process >      44.68 MB

     Estimated max dynamical RAM per process >      91.62 MB

     Initial potential from superposition of free atoms

     starting charge   40.99910, renormalised to   41.00000
     Starting wfcs are   36 randomized atomic wfcs
     Checking if some PAW data can be deallocated... 

     total cpu time spent up to now is        2.8 secs

     Self-consistent Calculation

     iteration #  1     ecut=    50.00 Ry     beta= 0.70
     Davidson diagonalization with overlap
     ethr =  1.00E-02,  avg # of iterations =  3.9

     total cpu time spent up to now is        7.1 secs

     total energy              =   -1329.23908269 Ry
     estimated scf accuracy    <       3.26256508 Ry

     iteration #  2     ecut=    50.00 Ry     beta= 0.70
     Davidson diagonalization with overlap
     ethr =  7.96E-03,  avg # of iterations =  3.3

     total cpu time spent up to now is       12.3 secs

     total energy              =   -1326.83647634 Ry
     estimated scf accuracy    <      57.68882547 Ry

     iteration #  3     ecut=    50.00 Ry     beta= 0.70
     Davidson diagonalization with overlap
     ethr =  7.96E-03,  avg # of iterations =  3.1

     total cpu time spent up to now is       16.5 secs

     total energy              =   -1331.67808539 Ry
     estimated scf accuracy    <       1.33310352 Ry

     iteration #  4     ecut=    50.00 Ry     beta= 0.70
     Davidson diagonalization with overlap
     ethr =  3.25E-03,  avg # of iterations =  1.5

     total cpu time spent up to now is       20.2 secs

     total energy              =   -1331.76698121 Ry
     estimated scf accuracy    <       0.20511045 Ry

     iteration #  5     ecut=    50.00 Ry     beta= 0.70
     Davidson diagonalization with overlap
     ethr =  5.00E-04,  avg # of iterations =  2.5

     total cpu time spent up to now is       24.0 secs

     total energy              =   -1331.78398908 Ry
     estimated scf accuracy    <       0.02844100 Ry

     iteration #  6     ecut=    50.00 Ry     beta= 0.70
     Davidson diagonalization with overlap
     c_bands:  1 eigenvalues not converged
     ethr =  6.94E-05,  avg # of iterations =  5.8

     total cpu time spent up to now is       28.6 secs

     total energy              =   -1331.79121881 Ry
     estimated scf accuracy    <       0.00193616 Ry

     iteration #  7     ecut=    50.00 Ry     beta= 0.70
     Davidson diagonalization with overlap
     c_bands:  2 eigenvalues not converged
     ethr =  4.72E-06,  avg # of iterations =  7.8

     total cpu time spent up to now is       34.1 secs

     total energy              =   -1331.79242793 Ry
     estimated scf accuracy    <       0.00619023 Ry

     iteration #  8     ecut=    50.00 Ry     beta= 0.70
     Davidson diagonalization with overlap
     ethr =  4.72E-06,  avg # of iterations =  1.6

     total cpu time spent up to now is       37.8 secs

     total energy              =   -1331.79227687 Ry
     estimated scf accuracy    <       0.00166350 Ry

     iteration #  9     ecut=    50.00 Ry     beta= 0.70
     Davidson diagonalization with overlap
     ethr =  4.06E-06,  avg # of iterations =  1.1

     total cpu time spent up to now is       41.4 secs

     total energy              =   -1331.79238018 Ry
     estimated scf accuracy    <       0.00008147 Ry

     iteration # 10     ecut=    50.00 Ry     beta= 0.70
     Davidson diagonalization with overlap
     ethr =  1.99E-07,  avg # of iterations =  3.4

     total cpu time spent up to now is       45.7 secs

     total energy              =   -1331.79240176 Ry
     estimated scf accuracy    <       0.00000389 Ry

     iteration # 11     ecut=    50.00 Ry     beta= 0.70
     Davidson diagonalization with overlap
     ethr =  9.48E-09,  avg # of iterations =  4.4

     total cpu time spent up to now is       50.5 secs

     total energy              =   -1331.79240360 Ry
     estimated scf accuracy    <       0.00000203 Ry

     iteration # 12     ecut=    50.00 Ry     beta= 0.70
     Davidson diagonalization with overlap
     ethr =  4.95E-09,  avg # of iterations =  2.0

     total cpu time spent up to now is       54.3 secs

     total energy              =   -1331.79240348 Ry
     estimated scf accuracy    <       0.00000152 Ry

     iteration # 13     ecut=    50.00 Ry     beta= 0.70
     Davidson diagonalization with overlap
     ethr =  3.70E-09,  avg # of iterations =  1.0

     total cpu time spent up to now is       57.9 secs

     total energy              =   -1331.79240352 Ry
     estimated scf accuracy    <       0.00000016 Ry

     iteration # 14     ecut=    50.00 Ry     beta= 0.70
     Davidson diagonalization with overlap
     ethr =  3.88E-10,  avg # of iterations =  2.6

     total cpu time spent up to now is       61.9 secs

     End of self-consistent calculation

          k = 0.0000 0.0000 0.0000 (  2085 PWs)   bands (ev):

     4.6655   9.0531   9.0531   9.4946   9.4946   9.4946  11.2750  11.2750
    11.2750  11.3092  11.3092  11.3092  12.3109  12.3109  13.3289  13.3289
    13.3639  13.3639  13.6228  13.6228  13.6228  20.7844  20.7844  20.7844
    21.3140  21.4351  22.7428  22.7428  22.7428  22.8177

     occupation numbers 
     1.0000   1.0000   1.0000   1.0000   1.0000   1.0000   1.0000   1.0000
     1.0000   1.0000   1.0000   1.0000   1.0000   1.0000   1.0000   1.0000
     1.0000   1.0000   1.0337   1.0337   1.0337  -0.0000  -0.0000  -0.0000
    -0.0000  -0.0000  -0.0000  -0.0000  -0.0000  -0.0000

          k =-0.1250 0.1250-0.1250 (  2049 PWs)   bands (ev):

     4.8987   9.1311   9.1311   9.4183   9.5393   9.5393  11.1748  11.2276
    11.2276  11.2706  11.2706  11.3983  12.3493  12.3493  13.2863  13.2863
    13.3191  13.3193  13.3193  13.6080  13.6080  18.8533  20.6010  20.6010
    21.0338  22.0358  22.0358  22.1145  22.4073  23.7467

     occupation numbers 
     1.0000   1.0000   1.0000   1.0000   1.0000   1.0000   1.0000   1.0000
     1.0000   1.0000   1.0000   1.0000   1.0000   1.0000   1.0000   1.0000
     1.0000   1.0000   1.0000   1.0250   1.0250  -0.0000  -0.0000  -0.0000
    -0.0000  -0.0000  -0.0000  -0.0000  -0.0000  -0.0000

          k =-0.2500 0.2500-0.2500 (  2033 PWs)   bands (ev):

     5.5728   9.2834   9.3285   9.3285   9.6823   9.6823  10.7513  11.0915
    11.0915  11.1508  11.1508  11.5679  12.4506  12.4506  12.7262  13.1394
    13.1394  13.2559  13.2559  13.5704  13.5704  16.6001  20.2100  20.2100
    20.6084  21.4280  21.4280  22.1447  23.9460  25.0708

     occupation numbers 
     1.0000   1.0000   1.0000   1.0000   1.0000   1.0000   1.0000   1.0000
     1.0000   1.0000   1.0000   1.0000   1.0000   1.0000   1.0000   1.0000
     1.0000   1.0000   1.0000   1.0055   1.0055  -0.0000  -0.0000  -0.0000
    -0.0000  -0.0000  -0.0000  -0.0000  -0.0000  -0.0000

          k =-0.3750 0.3750-0.3750 (  2039 PWs)   bands (ev):

     6.5924   9.0043   9.5275   9.5275   9.9411   9.9411  10.1854  10.8632
    10.8632  10.9975  10.9975  11.2598  12.5723  12.5723  12.7481  12.9865
    12.9865  13.2101  13.2101  13.5118  13.5118  14.8773  19.8537  19.8537
    20.3835  21.0373  21.0373  22.1236  26.2404  26.7301

     occupation numbers 
     1.0000   1.0000   1.0000   1.0000   1.0000   1.0000   1.0000   1.0000
     1.0000   1.0000   1.0000   1.0000   1.0000   1.0000   1.0000   1.0000
     1.0000   1.0000   1.0000   1.0001   1.0001  -0.0000  -0.0000  -0.0000
    -0.0000  -0.0000  -0.0000  -0.0000  -0.0000  -0.0000

          k = 0.5000-0.5000 0.5000 (  2036 PWs)   bands (ev):

     7.4807   8.3502   9.6080   9.6080  10.1421  10.1530  10.1530  10.6705
    10.6705  10.8520  10.9261  10.9261  12.6333  12.6333  12.9268  12.9268
    13.1915  13.1915  13.2047  13.4767  13.4767  13.9789  19.7127  19.7127
    20.3162  20.9060  20.9060  22.1090  28.0902  28.0902

     occupation numbers 
     1.0000   1.0000   1.0000   1.0000   1.0000   1.0000   1.0000   1.0000
     1.0000   1.0000   1.0000   1.0000   1.0000   1.0000   1.0000   1.0000
     1.0000   1.0000   1.0000   1.0000   1.0000  -0.0000  -0.0000  -0.0000
    -0.0000  -0.0000  -0.0000  -0.0000  -0.0000  -0.0000

          k = 0.0000 0.2500 0.0000 (  2029 PWs)   bands (ev):

     4.9760   9.1290   9.1767   9.3079   9.5883   9.5883  10.8570  11.2912
    11.2912  11.3705  11.4131  11.4131  12.2931  12.3876  13.2052  13.2588
    13.3482  13.3603  13.4033  13.4033  13.5978  19.5027  19.5027  19.7385
    20.7045  21.0491  22.5527  22.5528  23.6375  23.8851

     occupation numbers 
     1.0000   1.0000   1.0000   1.0000   1.0000   1.0000   1.0000   1.0000
     1.0000   1.0000   1.0000   1.0000   1.0000   1.0000   1.0000   1.0000
     1.0000   1.0000   1.0000   1.0000   1.0182  -0.0000  -0.0000  -0.0000
    -0.0000  -0.0000  -0.0000  -0.0000  -0.0000  -0.0000

          k =-0.1250 0.3750-0.1250 (  2034 PWs)   bands (ev):

     5.5017   9.1367   9.2392   9.3521   9.7020   9.7164  10.5203  11.1956
    11.2262  11.4069  11.4462  11.5342  12.3475  12.4428  12.8986  13.0469
    13.1674  13.2054  13.3325  13.3794  13.6388  17.2952  18.6493  19.3896
    20.0991  21.6398  22.7466  22.8690  23.8858  25.2063

     occupation numbers 
     1.0000   1.0000   1.0000   1.0000   1.0000   1.0000   1.0000   1.0000
     1.0000   1.0000   1.0000   1.0000   1.0000   1.0000   1.0000   1.0000
     1.0000   1.0000   1.0000   1.0000   1.0329  -0.0000  -0.0000  -0.0000
    -0.0000  -0.0000  -0.0000  -0.0000  -0.0000  -0.0000

          k =-0.2500 0.5000-0.2500 (  2036 PWs)   bands (ev):

     6.4057   8.9690   9.3535   9.5594   9.9016   9.9271  10.2162  11.0225
    11.0558  11.1464  11.2400  11.4812  12.4984  12.5029  12.6352  12.8675
    13.0170  13.1585  13.2841  13.4027  13.6259  15.3432  18.2115  18.5178
    20.0406  22.3861  22.7814  23.5377  23.7736  27.1471

     occupation numbers 
     1.0000   1.0000   1.0000   1.0000   1.0000   1.0000   1.0000   1.0000
     1.0000   1.0000   1.0000   1.0000   1.0000   1.0000   1.0000   1.0000
     1.0000   1.0000   1.0000   1.0000   1.0348  -0.0000  -0.0000  -0.0000
    -0.0000  -0.0000  -0.0000  -0.0000  -0.0000  -0.0000

          k = 0.6250-0.3750 0.6250 (  2039 PWs)   bands (ev):

     7.4645   8.4454   9.4128   9.6820   9.9474  10.1430  10.3313  10.8066
    10.8140  10.9828  11.0034  11.0481  12.5656  12.5974  12.7889  12.8497
    13.0715  13.1649  13.2826  13.5182  13.5309  14.0784  17.8898  18.2881
    20.0615  22.2813  22.4659  23.6740  25.8245  28.2696

     occupation numbers 
     1.0000   1.0000   1.0000   1.0000   1.0000   1.0000   1.0000   1.0000
     1.0000   1.0000   1.0000   1.0000   1.0000   1.0000   1.0000   1.0000
     1.0000   1.0000   1.0000   1.0002   1.0005  -0.0000  -0.0000  -0.0000
    -0.0000  -0.0000  -0.0000  -0.0000  -0.0000  -0.0000

          k = 0.5000-0.2500 0.5000 (  2035 PWs)   bands (ev):

     7.1196   8.7316   9.4241   9.6584   9.9366  10.0196  10.2949  10.7485
    10.9294  10.9441  11.1225  11.1634  12.5661  12.5775  12.7727  12.8738
    12.9176  13.1861  13.2137  13.3988  13.6914  14.4416  17.6169  18.8851
    20.1930  22.1245  22.1726  23.8348  26.1923  26.3590

     occupation numbers 
     1.0000   1.0000   1.0000   1.0000   1.0000   1.0000   1.0000   1.0000
     1.0000   1.0000   1.0000   1.0000   1.0000   1.0000   1.0000   1.0000
     1.0000   1.0000   1.0000   1.0000   0.7647  -0.0000  -0.0000  -0.0000
    -0.0000  -0.0000  -0.0000  -0.0000  -0.0000  -0.0000

          k = 0.3750-0.1250 0.3750 (  2042 PWs)   bands (ev):

     6.0673   9.1257   9.3681   9.4867   9.7178   9.9033  10.4297  10.8748
    11.0506  11.1275  11.4064  11.5780  12.4454  12.5035  12.6298  12.8895
    13.0522  13.1884  13.2377  13.3565  13.7663  15.9824  17.7570  19.8722
    20.4836  22.0164  22.0590  23.4116  24.3981  24.5198

     occupation numbers 
     1.0000   1.0000   1.0000   1.0000   1.0000   1.0000   1.0000   1.0000
     1.0000   1.0000   1.0000   1.0000   1.0000   1.0000   1.0000   1.0000
     1.0000   1.0000   1.0000   1.0000   0.0185  -0.0000  -0.0000  -0.0000
    -0.0000  -0.0000  -0.0000  -0.0000  -0.0000  -0.0000

          k = 0.2500 0.0000 0.2500 (  2027 PWs)   bands (ev):

     5.2784   9.2403   9.2501   9.2795   9.5740   9.6917  10.8757  11.0336
    11.1872  11.2546  11.4597  11.5031  12.3491  12.4273  13.0508  13.1185
    13.2132  13.2677  13.2928  13.3599  13.7354  17.9545  18.4378  20.8856
    21.0288  21.7835  22.0466  22.3972  23.0961  23.5277

     occupation numbers 
     1.0000   1.0000   1.0000   1.0000   1.0000   1.0000   1.0000   1.0000
     1.0000   1.0000   1.0000   1.0000   1.0000   1.0000   1.0000   1.0000
     1.0000   1.0000   1.0000   1.0000   0.2480  -0.0000  -0.0000  -0.0000
    -0.0000  -0.0000  -0.0000  -0.0000  -0.0000  -0.0000

          k = 0.0000 0.5000 0.0000 (  2020 PWs)   bands (ev):

     5.8665   8.8808   9.1614   9.5209   9.8082   9.8082  10.1951  11.2550
    11.2550  11.5456  11.8583  11.8583  12.2172  12.4406  12.8916  12.9325
    12.9325  13.0787  13.3508  13.4012  13.4549  17.4257  17.4257  17.6984
    19.2345  20.7748  24.0629  24.0629  26.1858  26.7839

     occupation numbers 
     1.0000   1.0000   1.0000   1.0000   1.0000   1.0000   1.0000   1.0000
     1.0000   1.0000   1.0000   1.0000   1.0000   1.0000   1.0000   1.0000
     1.0000   1.0000   1.0000   1.0000   1.0000  -0.0000  -0.0000  -0.0000
    -0.0000  -0.0000  -0.0000  -0.0000  -0.0000  -0.0000

          k =-0.1250 0.6250-0.1250 (  2037 PWs)   bands (ev):

     6.6108   8.7056   9.0647   9.7372   9.8814   9.9586  10.1229  11.1634
    11.1683  11.6426  11.8079  11.9103  12.3113  12.4502  12.6122  12.6713
    12.9506  13.0132  13.3772  13.4107  13.4527  15.7036  16.6019  16.6725
    19.6296  21.3146  24.4733  24.6815  26.6258  28.2216

     occupation numbers 
     1.0000   1.0000   1.0000   1.0000   1.0000   1.0000   1.0000   1.0000
     1.0000   1.0000   1.0000   1.0000   1.0000   1.0000   1.0000   1.0000
     1.0000   1.0000   1.0000   1.0000   1.0000  -0.0000  -0.0000  -0.0000
    -0.0000  -0.0000  -0.0000  -0.0000  -0.0000  -0.0000

          k = 0.7500-0.2500 0.7500 (  2044 PWs)   bands (ev):

     7.5811   8.4947   9.0173   9.7095   9.8739  10.1392  10.4634  10.9548
    11.0892  11.3461  11.3803  11.5296  12.3985  12.4721  12.5804  12.7910
    12.9546  13.0975  13.4013  13.4573  13.6271  14.2440  15.8712  16.5601
    19.8718  22.9992  24.2498  24.6127  26.5359  28.6987

     occupation numbers 
     1.0000   1.0000   1.0000   1.0000   1.0000   1.0000   1.0000   1.0000
     1.0000   1.0000   1.0000   1.0000   1.0000   1.0000   1.0000   1.0000
     1.0000   1.0000   1.0000   1.0000   1.0351  -0.0000  -0.0000  -0.0000
    -0.0000  -0.0000  -0.0000  -0.0000  -0.0000  -0.0000

          k = 0.6250-0.1250 0.6250 (  2047 PWs)   bands (ev):

     7.8046   8.5690   9.1166   9.5428   9.8935  10.1191  10.8040  10.8392
    10.9689  11.0047  11.1648  11.3526  12.4255  12.5355  12.6096  12.7217
    13.0294  13.1266  13.2013  13.4690  13.8647  14.1469  15.5355  17.1953
    20.0032  23.7346  24.3187  25.0913  26.0961  26.3962

     occupation numbers 
     1.0000   1.0000   1.0000   1.0000   1.0000   1.0000   1.0000   1.0000
     1.0000   1.0000   1.0000   1.0000   1.0000   1.0000   1.0000   1.0000
     1.0000   1.0000   1.0000   1.0000  -0.0038  -0.0000  -0.0000  -0.0000
    -0.0000  -0.0000  -0.0000  -0.0000  -0.0000  -0.0000

          k = 0.5000 0.0000 0.5000 (  2029 PWs)   bands (ev):

     6.8923   9.0128   9.2101   9.7995   9.8015   9.8140  10.4662  10.8072
    10.9332  11.0829  11.4434  11.5510  12.4053  12.5268  12.6072  12.7237
    12.8516  13.1201  13.1772  13.3780  13.8834  15.4507  15.7510  18.3967
    20.1814  23.4581  23.6036  24.0479  24.2641  26.6050

     occupation numbers 
     1.0000   1.0000   1.0000   1.0000   1.0000   1.0000   1.0000   1.0000
     1.0000   1.0000   1.0000   1.0000   1.0000   1.0000   1.0000   1.0000
     1.0000   1.0000   1.0000   1.0000  -0.0012  -0.0000  -0.0000  -0.0000
    -0.0000  -0.0000  -0.0000  -0.0000  -0.0000  -0.0000

          k = 0.0000 0.7500 0.0000 (  2048 PWs)   bands (ev):

     7.1534   8.4851   8.8616   9.8568   9.9830  10.0128  10.0128  11.2324
    11.2324  11.7736  11.9866  12.3988  12.5156  12.5156  12.6117  12.6817
    12.6817  12.9449  13.2295  13.3414  13.5197  15.2001  15.5205  15.5205
    19.0941  20.7036  26.3271  26.3271  28.9267  29.5781

     occupation numbers 
     1.0000   1.0000   1.0000   1.0000   1.0000   1.0000   1.0000   1.0000
     1.0000   1.0000   1.0000   1.0000   1.0000   1.0000   1.0000   1.0000
     1.0000   1.0000   1.0000   1.0000   1.0002  -0.0000  -0.0000  -0.0000
    -0.0000  -0.0000  -0.0000  -0.0000  -0.0000  -0.0000

          k = 0.8750-0.1250 0.8750 (  2049 PWs)   bands (ev):

     7.8455   8.4110   8.8263   9.5038  10.0587  10.1820  10.2540  11.0988
    11.2309  11.6333  11.9690  12.1018  12.2544  12.4665  12.5859  12.8785
    12.9880  13.1095  13.1998  13.6296  13.7023  14.2521  14.5619  15.0264
    19.5083  21.2044  26.6619  26.8861  28.8381  28.9900

     occupation numbers 
     1.0000   1.0000   1.0000   1.0000   1.0000   1.0000   1.0000   1.0000
     1.0000   1.0000   1.0000   1.0000   1.0000   1.0000   1.0000   1.0000
     1.0000   1.0000   1.0000   1.0354   0.6430  -0.0000  -0.0000  -0.0000
    -0.0000  -0.0000  -0.0000  -0.0000  -0.0000  -0.0000

          k = 0.7500 0.0000 0.7500 (  2045 PWs)   bands (ev):

     8.2793   8.3993   9.0588   9.1019  10.0618  10.1975  10.6590  10.9028
    11.2394  11.3358  11.4328  11.7870  12.2754  12.4795  12.5603  12.7964
    13.0807  13.0997  13.1251  13.6358  13.9790  14.0840  14.2184  15.7284
    19.8405  22.9085  26.2019  26.2149  26.3702  26.9783

     occupation numbers 
     1.0000   1.0000   1.0000   1.0000   1.0000   1.0000   1.0000   1.0000
     1.0000   1.0000   1.0000   1.0000   1.0000   1.0000   1.0000   1.0000
     1.0000   1.0000   1.0000   1.0345  -0.0000  -0.0000  -0.0000  -0.0000
    -0.0000  -0.0000  -0.0000  -0.0000  -0.0000  -0.0000

          k = 0.0000-1.0000 0.0000 (  2044 PWs)   bands (ev):

     7.9709   8.3296   8.9783   9.3115  10.0916  10.0916  10.2560  11.2289
    11.2289  11.7695  11.8956  12.3365  12.3524  12.3524  12.5356  12.9007
    13.1008  13.3377  13.8200  13.8200  13.8870  13.9091  14.0122  14.0122
    19.0805  20.6967  28.7722  28.7722  29.3333  29.4562

     occupation numbers 
     1.0000   1.0000   1.0000   1.0000   1.0000   1.0000   1.0000   1.0000
     1.0000   1.0000   1.0000   1.0000   1.0000   1.0000   1.0000   1.0000
     1.0000   1.0000  -0.0250  -0.0250  -0.0010  -0.0002  -0.0000  -0.0000
    -0.0000  -0.0000  -0.0000  -0.0000  -0.0000  -0.0000

          k =-0.2500 0.5000 0.0000 (  2036 PWs)   bands (ev):

     6.1402   8.9549   9.2485   9.5572   9.7862   9.8988  10.2669  11.1008
    11.1770  11.2698  11.6210  11.7082  12.3664  12.4756  12.7017  12.7374
    13.0501  13.0525  13.3254  13.3524  13.6916  16.4894  16.8276  18.1620
    20.8286  21.7140  22.3717  24.2349  25.1699  25.6557

     occupation numbers 
     1.0000   1.0000   1.0000   1.0000   1.0000   1.0000   1.0000   1.0000
     1.0000   1.0000   1.0000   1.0000   1.0000   1.0000   1.0000   1.0000
     1.0000   1.0000   1.0000   1.0000   0.7624  -0.0000  -0.0000  -0.0000
    -0.0000  -0.0000  -0.0000  -0.0000  -0.0000  -0.0000

          k = 0.6250-0.3750 0.8750 (  2046 PWs)   bands (ev):

     7.0795   8.7862   9.1594   9.6981   9.8845  10.0044  10.4068  10.9458
    11.0297  11.0724  11.3877  11.5451  12.4265  12.5239  12.6142  12.7440
    12.8909  13.1139  13.2880  13.4034  13.7219  14.8353  16.3597  17.2375
    21.0456  22.0247  23.2486  24.6362  25.7936  27.1689

     occupation numbers 
     1.0000   1.0000   1.0000   1.0000   1.0000   1.0000   1.0000   1.0000
     1.0000   1.0000   1.0000   1.0000   1.0000   1.0000   1.0000   1.0000
     1.0000   1.0000   1.0000   1.0000   0.4025  -0.0000  -0.0000  -0.0000
    -0.0000  -0.0000  -0.0000  -0.0000  -0.0000  -0.0000

          k = 0.5000-0.2500 0.7500 (  2036 PWs)   bands (ev):

     7.9155   8.3062   9.1803   9.6068   9.9170  10.1802  10.7039  10.8304
    10.9303  10.9426  11.1852  11.2222  12.4337  12.6025  12.6578  12.6978
    13.0748  13.1720  13.3862  13.5194  13.6705  13.8874  16.3914  16.7465
    21.0296  21.9011  24.6786  24.9465  25.9929  26.3756

     occupation numbers 
     1.0000   1.0000   1.0000   1.0000   1.0000   1.0000   1.0000   1.0000
     1.0000   1.0000   1.0000   1.0000   1.0000   1.0000   1.0000   1.0000
     1.0000   1.0000   1.0000   1.0002   0.9369  -0.0009  -0.0000  -0.0000
    -0.0000  -0.0000  -0.0000  -0.0000  -0.0000  -0.0000

          k = 0.7500-0.2500 1.0000 (  2051 PWs)   bands (ev):

     7.3721   8.5896   8.8809   9.6749  10.0231  10.0414  10.3122  11.0841
    11.1520  11.5515  11.6018  12.2178  12.2598  12.3204  12.6038  12.6352
    12.9360  13.1226  13.3613  13.4507  13.5351  15.0015  15.2613  15.6497
    20.3237  21.5263  24.1912  26.4060  28.0110  28.4109

     occupation numbers 
     1.0000   1.0000   1.0000   1.0000   1.0000   1.0000   1.0000   1.0000
     1.0000   1.0000   1.0000   1.0000   1.0000   1.0000   1.0000   1.0000
     1.0000   1.0000   1.0000   1.0000   1.0006  -0.0000  -0.0000  -0.0000
    -0.0000  -0.0000  -0.0000  -0.0000  -0.0000  -0.0000

          k = 0.6250-0.1250 0.8750 (  2045 PWs)   bands (ev):

     8.1871   8.4395   8.8697   9.3225  10.1000  10.2133  10.6864  10.9513
    11.1555  11.2027  11.3021  11.7968  12.3086  12.3960  12.6249  12.7358
    13.0295  13.2568  13.4028  13.6068  13.7768  13.9119  14.8203  15.3166
    20.9192  23.0350  23.7036  25.7998  26.9485  28.7450

     occupation numbers 
     1.0000   1.0000   1.0000   1.0000   1.0000   1.0000   1.0000   1.0000
     1.0000   1.0000   1.0000   1.0000   1.0000   1.0000   1.0000   1.0000
     1.0000   1.0000   1.0000   1.0242  -0.0152  -0.0002  -0.0000  -0.0000
    -0.0000  -0.0000  -0.0000  -0.0000  -0.0000  -0.0000

          k = 0.5000 0.0000 0.7500 (  2040 PWs)   bands (ev):

     7.8769   8.7709   8.8454   9.3999  10.0597  10.1403  10.8039  10.8977
    10.9687  11.1181  11.2602  11.5790  12.2989  12.5714  12.6286  12.6497
    12.9835  13.1764  13.2782  13.4631  13.8442  14.5170  14.7170  16.0908
    21.2631  23.1019  23.5650  25.4537  26.3807  27.4196

     occupation numbers 
     1.0000   1.0000   1.0000   1.0000   1.0000   1.0000   1.0000   1.0000
     1.0000   1.0000   1.0000   1.0000   1.0000   1.0000   1.0000   1.0000
     1.0000   1.0000   1.0000   1.0000  -0.0105  -0.0000  -0.0000  -0.0000
    -0.0000  -0.0000  -0.0000  -0.0000  -0.0000  -0.0000

          k =-0.2500-1.0000 0.0000 (  2044 PWs)   bands (ev):

     8.1642   8.4408   8.9768   9.1022  10.1455  10.2451  10.4000  11.1045
    11.1793  11.4543  11.7276  12.1042  12.2393  12.5694  12.5969  12.6767
    13.0328  13.1435  13.8116  13.8231  13.9537  14.0169  14.0800  14.1035
    20.2085  21.4805  26.2586  26.2837  29.0505  29.0825

     occupation numbers 
     1.0000   1.0000   1.0000   1.0000   1.0000   1.0000   1.0000   1.0000
     1.0000   1.0000   1.0000   1.0000   1.0000   1.0000   1.0000   1.0000
     1.0000   1.0000  -0.0304  -0.0229  -0.0000  -0.0000  -0.0000  -0.0000
    -0.0000  -0.0000  -0.0000  -0.0000  -0.0000  -0.0000

          k =-0.5000-1.0000 0.0000 (  2048 PWs)   bands (ev):

     8.4199   8.7374   8.7374   8.9497  10.2120  10.2851  10.9271  10.9271
    10.9757  11.0579  11.6100  11.6100  12.2068  12.5541  12.5541  12.7247
    13.1725  13.4962  13.4962  13.7722  13.8792  14.1122  14.1122  14.1643
    22.8567  22.9252  23.5050  23.5050  28.8411  29.5588

     occupation numbers 
     1.0000   1.0000   1.0000   1.0000   1.0000   1.0000   1.0000   1.0000
     1.0000   1.0000   1.0000   1.0000   1.0000   1.0000   1.0000   1.0000
     1.0000   1.0000   1.0000  -0.0030  -0.0016  -0.0000  -0.0000  -0.0000
    -0.0000  -0.0000  -0.0000  -0.0000  -0.0000  -0.0000

     the Fermi energy is    13.7140 ev

!    total energy              =   -1331.79240353 Ry

     total all-electron energy =    -46220.643488 Ry
     estimated scf accuracy    <       0.00000003 Ry
     smearing contrib. (-TS)   =      -0.00001116 Ry
     internal energy E=F+TS    =   -1331.79239236 Ry

     The total energy is F=E-TS. E is the sum of the following terms:
     one-electron contribution =     -38.93161117 Ry
     hartree contribution      =      79.64012190 Ry
     xc contribution           =    -152.01883210 Ry
     ewald contribution        =    -275.81450088 Ry
     one-center paw contrib.   =    -944.66757010 Ry
      -> PAW hartree energy AE =     312.23019235 Ry
      -> PAW hartree energy PS =    -310.82181658 Ry
      -> PAW xc energy AE      =   -1097.99739745 Ry
      -> PAW xc energy PS      =     151.92145157 Ry
      -> total E_H with PAW    =      81.04849767 Ry
      -> total E_XC with PAW   =   -1098.09477798 Ry

     convergence has been achieved in  14 iterations

     Writing output data file ././CuPtNi.save/

     init_run     :      3.64s CPU      2.60s WALL (       1 calls)
     electrons    :     98.01s CPU     59.74s WALL (       1 calls)

     Called by init_run:
     wfcinit      :      2.34s CPU      1.36s WALL (       1 calls)
     wfcinit:atom :      0.05s CPU      0.02s WALL (      29 calls)
     wfcinit:wfcr :      2.05s CPU      1.20s WALL (      29 calls)
     potinit      :      0.45s CPU      0.47s WALL (       1 calls)
     hinit0       :      0.72s CPU      0.65s WALL (       1 calls)

     Called by electrons:
     c_bands      :     73.58s CPU     41.51s WALL (      14 calls)
     sum_band     :     15.44s CPU      9.21s WALL (      14 calls)
     v_of_rho     :      0.50s CPU      0.30s WALL (      15 calls)
     v_h          :      0.02s CPU      0.01s WALL (      15 calls)
     v_xc         :      0.47s CPU      0.29s WALL (      15 calls)
     newd         :      1.58s CPU      1.32s WALL (      15 calls)
     PAW_pot      :      7.25s CPU      6.86s WALL (      15 calls)
     mix_rho      :      0.08s CPU      0.05s WALL (      14 calls)

     Called by c_bands:
     init_us_2    :      1.89s CPU      0.93s WALL (     841 calls)
     cegterg      :     66.04s CPU     37.10s WALL (     406 calls)

     Called by sum_band:
     sum_band:wei :      0.03s CPU      0.01s WALL (      14 calls)
     sum_band:loo :     12.40s CPU      7.58s WALL (      14 calls)
     sum_band:buf :      0.09s CPU      0.05s WALL (     406 calls)
     sum_band:ini :      0.87s CPU      0.44s WALL (     406 calls)
     sum_band:cal :      0.47s CPU      0.33s WALL (     406 calls)
     sum_band:bec :      0.01s CPU      0.01s WALL (     406 calls)
     addusdens    :      2.90s CPU      1.55s WALL (      14 calls)
     addusd:skk   :      0.01s CPU      0.00s WALL (      42 calls)
     addusd:dgemm :      1.59s CPU      0.64s WALL (      42 calls)
     addusd:qvan2 :      1.13s CPU      0.74s WALL (      42 calls)

     Called by *egterg:
     cdiaghg      :      3.83s CPU      1.57s WALL (    1680 calls)
     cegterg:over :      1.79s CPU      0.68s WALL (    1274 calls)
     cegterg:upda :      1.40s CPU      0.51s WALL (    1274 calls)
     cegterg:last :      2.07s CPU      0.79s WALL (     801 calls)
     h_psi        :     55.56s CPU     33.38s WALL (    1709 calls)
     s_psi        :      1.49s CPU      0.62s WALL (    1709 calls)
     g_psi        :      0.64s CPU      0.23s WALL (    1274 calls)

     Called by h_psi:
     h_psi:calbec :      1.42s CPU      0.93s WALL (    1709 calls)
     vloc_psi     :     52.10s CPU     31.54s WALL (    1709 calls)
     add_vuspsi   :      1.60s CPU      0.72s WALL (    1709 calls)

     General routines
     calbec       :      1.88s CPU      1.26s WALL (    2115 calls)
     fft          :      0.22s CPU      0.14s WALL (     165 calls)
     ffts         :      0.02s CPU      0.01s WALL (      14 calls)
     fftw         :     54.30s CPU     33.06s WALL (   74152 calls)

     Parallel routines

     PAW routines
     PAW_pot      :      7.25s CPU      6.86s WALL (      15 calls)
     PAW_symme    :      0.04s CPU      0.03s WALL (      29 calls)

     PWSCF        :   1m41.86s CPU   1m 2.61s WALL


   This run was terminated on:  13:52:45  22May2024            

=------------------------------------------------------------------------------=
   JOB DONE.
=------------------------------------------------------------------------------=
