
     Program PWSCF v.6.7MaX starts on 22May2024 at 13:48: 0 

     This program is part of the open-source Quantum ESPRESSO suite
     for quantum simulation of materials; please cite
         "P. Giannozzi et al., J. Phys.:Condens. Matter 21 395502 (2009);
         "P. Giannozzi et al., J. Phys.:Condens. Matter 29 465901 (2017);
          URL http://www.quantum-espresso.org", 
     in publications or presentations arising from this work. More details at
     http://www.quantum-espresso.org/quote

     Parallel version (MPI), running on     1 processors

     MPI processes distributed on     1 nodes
     Waiting for input...
     Reading input from standard input

     Current dimensions of program PWSCF are:
     Max number of different atomic species (ntypx) = 10
     Max number of k-points (npk) =  40000
     Max angular momentum in pseudopotentials (lmaxx) =  3
     file Cu.UPF: wavefunction(s)  4S 3D renormalized
     file Pt.UPF: wavefunction(s)  6S 5D renormalized
     file Ni.UPF: wavefunction(s)  4S 3D renormalized

     Subspace diagonalization in iterative solution of the eigenvalue problem:
     a serial algorithm will be used


     G-vector sticks info
     --------------------
     sticks:   dense  smooth     PW     G-vecs:    dense   smooth      PW
     Sum         793     793    241                14649    14649    2445



     bravais-lattice index     =            2
     lattice parameter (alat)  =      10.7000  a.u.
     unit-cell volume          =     306.2607 (a.u.)^3
     number of atoms/cell      =            4
     number of atomic types    =            3
     number of electrons       =        41.00
     number of Kohn-Sham states=           30
     kinetic-energy cutoff     =      50.0000  Ry
     charge density cutoff     =     200.0000  Ry
     scf convergence threshold =      1.0E-07
     mixing beta               =       0.7000
     number of iterations used =            8  plain     mixing
     Exchange-correlation= SLA  PW   PBX  PBC
                           (   1   4   3   4   0   0   0)

     celldm(1)=  10.700000  celldm(2)=   0.000000  celldm(3)=   0.000000
     celldm(4)=   0.000000  celldm(5)=   0.000000  celldm(6)=   0.000000

     crystal axes: (cart. coord. in units of alat)
               a(1) = (  -0.500000   0.000000   0.500000 )  
               a(2) = (   0.000000   0.500000   0.500000 )  
               a(3) = (  -0.500000   0.500000   0.000000 )  

     reciprocal axes: (cart. coord. in units 2 pi/alat)
               b(1) = ( -1.000000 -1.000000  1.000000 )  
               b(2) = (  1.000000  1.000000  1.000000 )  
               b(3) = ( -1.000000  1.000000 -1.000000 )  


     PseudoPot. # 1 for Cu read from file:
     ././Cu.UPF
     MD5 check sum: cfffd1f38ee05704b3e17f46f1730a6f
     Pseudo is Projector augmented-wave + core cor, Zval = 11.0
     Generated using &quot;atomic&quot; code by A. Dal Corso  v.6.3
     Shape of augmentation charge: PSQ
     Using radial grid of 1199 points,  6 beta functions with: 
                l(1) =   0
                l(2) =   0
                l(3) =   1
                l(4) =   1
                l(5) =   2
                l(6) =   2
     Q(r) pseudized with 0 coefficients 


     PseudoPot. # 2 for Pt read from file:
     ././Pt.UPF
     MD5 check sum: c5224e9cd7a5e36e81f2def9f50bb494
     Pseudo is Projector augmented-wave + core cor, Zval = 10.0
     Generated using &quot;atomic&quot; code by A. Dal Corso  v.6.3
     Shape of augmentation charge: PSQ
     Using radial grid of 1277 points,  6 beta functions with: 
                l(1) =   0
                l(2) =   0
                l(3) =   1
                l(4) =   1
                l(5) =   2
                l(6) =   2
     Q(r) pseudized with 0 coefficients 


     PseudoPot. # 3 for Ni read from file:
     ././Ni.UPF
     MD5 check sum: 5bc40517020091042a126ac2b4ecef1e
     Pseudo is Projector augmented-wave + core cor, Zval = 10.0
     Generated using "atomic" code by A. Dal Corso  v.5.0.2 svn rev. 9415
     Shape of augmentation charge: PSQ
     Using radial grid of 1195 points,  6 beta functions with: 
                l(1) =   0
                l(2) =   0
                l(3) =   1
                l(4) =   1
                l(5) =   2
                l(6) =   2
     Q(r) pseudized with 0 coefficients 


     atomic species   valence    mass     pseudopotential
        Cu            11.00    63.54600     Cu( 1.00)
        Pt            10.00   195.08000     Pt( 1.00)
        Ni            10.00    58.69000     Ni( 1.00)

     48 Sym. Ops., with inversion, found


                                    s                        frac. trans.

      isym =  1     identity                                     

 cryst.   s( 1) = (     1          0          0      )
                  (     0          1          0      )
                  (     0          0          1      )

 cart.    s( 1) = (  1.0000000  0.0000000  0.0000000 )
                  (  0.0000000  1.0000000  0.0000000 )
                  (  0.0000000  0.0000000  1.0000000 )


      isym =  2     180 deg rotation - cart. axis [0,0,1]        

 cryst.   s( 2) = (     0          1         -1      )
                  (     1          0         -1      )
                  (     0          0         -1      )

 cart.    s( 2) = ( -1.0000000  0.0000000  0.0000000 )
                  (  0.0000000 -1.0000000  0.0000000 )
                  (  0.0000000  0.0000000  1.0000000 )


      isym =  3     180 deg rotation - cart. axis [0,1,0]        

 cryst.   s( 3) = (    -1          0          0      )
                  (    -1          0          1      )
                  (    -1          1          0      )

 cart.    s( 3) = ( -1.0000000  0.0000000  0.0000000 )
                  (  0.0000000  1.0000000  0.0000000 )
                  (  0.0000000  0.0000000 -1.0000000 )


      isym =  4     180 deg rotation - cart. axis [1,0,0]        

 cryst.   s( 4) = (     0         -1          1      )
                  (     0         -1          0      )
                  (     1         -1          0      )

 cart.    s( 4) = (  1.0000000  0.0000000  0.0000000 )
                  (  0.0000000 -1.0000000  0.0000000 )
                  (  0.0000000  0.0000000 -1.0000000 )


      isym =  5     180 deg rotation - cart. axis [1,1,0]        

 cryst.   s( 5) = (     0         -1          0      )
                  (    -1          0          0      )
                  (     0          0         -1      )

 cart.    s( 5) = (  0.0000000  1.0000000  0.0000000 )
                  (  1.0000000  0.0000000  0.0000000 )
                  (  0.0000000  0.0000000 -1.0000000 )


      isym =  6     180 deg rotation - cart. axis [1,-1,0]       

 cryst.   s( 6) = (    -1          0          1      )
                  (     0         -1          1      )
                  (     0          0          1      )

 cart.    s( 6) = (  0.0000000 -1.0000000  0.0000000 )
                  ( -1.0000000  0.0000000  0.0000000 )
                  (  0.0000000  0.0000000 -1.0000000 )


      isym =  7      90 deg rotation - cart. axis [0,0,-1]       

 cryst.   s( 7) = (     0          1          0      )
                  (     0          1         -1      )
                  (    -1          1          0      )

 cart.    s( 7) = (  0.0000000  1.0000000  0.0000000 )
                  ( -1.0000000  0.0000000  0.0000000 )
                  (  0.0000000  0.0000000  1.0000000 )


      isym =  8      90 deg rotation - cart. axis [0,0,1]        

 cryst.   s( 8) = (     1          0         -1      )
                  (     1          0          0      )
                  (     1         -1          0      )

 cart.    s( 8) = (  0.0000000 -1.0000000  0.0000000 )
                  (  1.0000000  0.0000000  0.0000000 )
                  (  0.0000000  0.0000000  1.0000000 )


      isym =  9     180 deg rotation - cart. axis [1,0,1]        

 cryst.   s( 9) = (    -1          0          0      )
                  (     0          0         -1      )
                  (     0         -1          0      )

 cart.    s( 9) = (  0.0000000  0.0000000  1.0000000 )
                  (  0.0000000 -1.0000000  0.0000000 )
                  (  1.0000000  0.0000000  0.0000000 )


      isym = 10     180 deg rotation - cart. axis [-1,0,1]       

 cryst.   s(10) = (     1          0          0      )
                  (     1         -1          0      )
                  (     1          0         -1      )

 cart.    s(10) = (  0.0000000  0.0000000 -1.0000000 )
                  (  0.0000000 -1.0000000  0.0000000 )
                  ( -1.0000000  0.0000000  0.0000000 )


      isym = 11      90 deg rotation - cart. axis [0,1,0]        

 cryst.   s(11) = (     0          1         -1      )
                  (    -1          1          0      )
                  (     0          1          0      )

 cart.    s(11) = (  0.0000000  0.0000000  1.0000000 )
                  (  0.0000000  1.0000000  0.0000000 )
                  ( -1.0000000  0.0000000  0.0000000 )


      isym = 12      90 deg rotation - cart. axis [0,-1,0]       

 cryst.   s(12) = (     0         -1          1      )
                  (     0          0          1      )
                  (    -1          0          1      )

 cart.    s(12) = (  0.0000000  0.0000000 -1.0000000 )
                  (  0.0000000  1.0000000  0.0000000 )
                  (  1.0000000  0.0000000  0.0000000 )


      isym = 13     180 deg rotation - cart. axis [0,1,1]        

 cryst.   s(13) = (    -1          1          0      )
                  (     0          1          0      )
                  (     0          1         -1      )

 cart.    s(13) = ( -1.0000000  0.0000000  0.0000000 )
                  (  0.0000000  0.0000000  1.0000000 )
                  (  0.0000000  1.0000000  0.0000000 )


      isym = 14     180 deg rotation - cart. axis [0,1,-1]       

 cryst.   s(14) = (     0          0         -1      )
                  (     0         -1          0      )
                  (    -1          0          0      )

 cart.    s(14) = ( -1.0000000  0.0000000  0.0000000 )
                  (  0.0000000  0.0000000 -1.0000000 )
                  (  0.0000000 -1.0000000  0.0000000 )


      isym = 15      90 deg rotation - cart. axis [-1,0,0]       

 cryst.   s(15) = (     0          0          1      )
                  (    -1          0          1      )
                  (     0         -1          1      )

 cart.    s(15) = (  1.0000000  0.0000000  0.0000000 )
                  (  0.0000000  0.0000000  1.0000000 )
                  (  0.0000000 -1.0000000  0.0000000 )


      isym = 16      90 deg rotation - cart. axis [1,0,0]        

 cryst.   s(16) = (     1         -1          0      )
                  (     1          0         -1      )
                  (     1          0          0      )

 cart.    s(16) = (  1.0000000  0.0000000  0.0000000 )
                  (  0.0000000  0.0000000 -1.0000000 )
                  (  0.0000000  1.0000000  0.0000000 )


      isym = 17     120 deg rotation - cart. axis [-1,-1,-1]     

 cryst.   s(17) = (    -1          0          1      )
                  (    -1          1          0      )
                  (    -1          0          0      )

 cart.    s(17) = (  0.0000000  1.0000000  0.0000000 )
                  (  0.0000000  0.0000000  1.0000000 )
                  (  1.0000000  0.0000000  0.0000000 )


      isym = 18     120 deg rotation - cart. axis [-1,1,1]       

 cryst.   s(18) = (     0          1          0      )
                  (     0          0          1      )
                  (     1          0          0      )

 cart.    s(18) = (  0.0000000 -1.0000000  0.0000000 )
                  (  0.0000000  0.0000000  1.0000000 )
                  ( -1.0000000  0.0000000  0.0000000 )


      isym = 19     120 deg rotation - cart. axis [1,1,-1]       

 cryst.   s(19) = (     1          0         -1      )
                  (     0          0         -1      )
                  (     0          1         -1      )

 cart.    s(19) = (  0.0000000  1.0000000  0.0000000 )
                  (  0.0000000  0.0000000 -1.0000000 )
                  ( -1.0000000  0.0000000  0.0000000 )


      isym = 20     120 deg rotation - cart. axis [1,-1,1]       

 cryst.   s(20) = (     0         -1          0      )
                  (     1         -1          0      )
                  (     0         -1          1      )

 cart.    s(20) = (  0.0000000 -1.0000000  0.0000000 )
                  (  0.0000000  0.0000000 -1.0000000 )
                  (  1.0000000  0.0000000  0.0000000 )


      isym = 21     120 deg rotation - cart. axis [1,1,1]        

 cryst.   s(21) = (     0          0         -1      )
                  (     0          1         -1      )
                  (     1          0         -1      )

 cart.    s(21) = (  0.0000000  0.0000000  1.0000000 )
                  (  1.0000000  0.0000000  0.0000000 )
                  (  0.0000000  1.0000000  0.0000000 )


      isym = 22     120 deg rotation - cart. axis [-1,1,-1]      

 cryst.   s(22) = (    -1          1          0      )
                  (    -1          0          0      )
                  (    -1          0          1      )

 cart.    s(22) = (  0.0000000  0.0000000  1.0000000 )
                  ( -1.0000000  0.0000000  0.0000000 )
                  (  0.0000000 -1.0000000  0.0000000 )


      isym = 23     120 deg rotation - cart. axis [1,-1,-1]      

 cryst.   s(23) = (     0          0          1      )
                  (     1          0          0      )
                  (     0          1          0      )

 cart.    s(23) = (  0.0000000  0.0000000 -1.0000000 )
                  ( -1.0000000  0.0000000  0.0000000 )
                  (  0.0000000  1.0000000  0.0000000 )


      isym = 24     120 deg rotation - cart. axis [-1,-1,1]      

 cryst.   s(24) = (     1         -1          0      )
                  (     0         -1          1      )
                  (     0         -1          0      )

 cart.    s(24) = (  0.0000000  0.0000000 -1.0000000 )
                  (  1.0000000  0.0000000  0.0000000 )
                  (  0.0000000 -1.0000000  0.0000000 )


      isym = 25     inversion                                    

 cryst.   s(25) = (    -1          0          0      )
                  (     0         -1          0      )
                  (     0          0         -1      )

 cart.    s(25) = ( -1.0000000  0.0000000  0.0000000 )
                  (  0.0000000 -1.0000000  0.0000000 )
                  (  0.0000000  0.0000000 -1.0000000 )


      isym = 26     inv. 180 deg rotation - cart. axis [0,0,1]   

 cryst.   s(26) = (     0         -1          1      )
                  (    -1          0          1      )
                  (     0          0          1      )

 cart.    s(26) = (  1.0000000  0.0000000  0.0000000 )
                  (  0.0000000  1.0000000  0.0000000 )
                  (  0.0000000  0.0000000 -1.0000000 )


      isym = 27     inv. 180 deg rotation - cart. axis [0,1,0]   

 cryst.   s(27) = (     1          0          0      )
                  (     1          0         -1      )
                  (     1         -1          0      )

 cart.    s(27) = (  1.0000000  0.0000000  0.0000000 )
                  (  0.0000000 -1.0000000  0.0000000 )
                  (  0.0000000  0.0000000  1.0000000 )


      isym = 28     inv. 180 deg rotation - cart. axis [1,0,0]   

 cryst.   s(28) = (     0          1         -1      )
                  (     0          1          0      )
                  (    -1          1          0      )

 cart.    s(28) = ( -1.0000000  0.0000000  0.0000000 )
                  (  0.0000000  1.0000000  0.0000000 )
                  (  0.0000000  0.0000000  1.0000000 )


      isym = 29     inv. 180 deg rotation - cart. axis [1,1,0]   

 cryst.   s(29) = (     0          1          0      )
                  (     1          0          0      )
                  (     0          0          1      )

 cart.    s(29) = (  0.0000000 -1.0000000  0.0000000 )
                  ( -1.0000000  0.0000000  0.0000000 )
                  (  0.0000000  0.0000000  1.0000000 )


      isym = 30     inv. 180 deg rotation - cart. axis [1,-1,0]  

 cryst.   s(30) = (     1          0         -1      )
                  (     0          1         -1      )
                  (     0          0         -1      )

 cart.    s(30) = (  0.0000000  1.0000000  0.0000000 )
                  (  1.0000000  0.0000000  0.0000000 )
                  (  0.0000000  0.0000000  1.0000000 )


      isym = 31     inv.  90 deg rotation - cart. axis [0,0,-1]  

 cryst.   s(31) = (     0         -1          0      )
                  (     0         -1          1      )
                  (     1         -1          0      )

 cart.    s(31) = (  0.0000000 -1.0000000  0.0000000 )
                  (  1.0000000  0.0000000  0.0000000 )
                  (  0.0000000  0.0000000 -1.0000000 )


      isym = 32     inv.  90 deg rotation - cart. axis [0,0,1]   

 cryst.   s(32) = (    -1          0          1      )
                  (    -1          0          0      )
                  (    -1          1          0      )

 cart.    s(32) = (  0.0000000  1.0000000  0.0000000 )
                  ( -1.0000000  0.0000000  0.0000000 )
                  (  0.0000000  0.0000000 -1.0000000 )


      isym = 33     inv. 180 deg rotation - cart. axis [1,0,1]   

 cryst.   s(33) = (     1          0          0      )
                  (     0          0          1      )
                  (     0          1          0      )

 cart.    s(33) = (  0.0000000  0.0000000 -1.0000000 )
                  (  0.0000000  1.0000000  0.0000000 )
                  ( -1.0000000  0.0000000  0.0000000 )


      isym = 34     inv. 180 deg rotation - cart. axis [-1,0,1]  

 cryst.   s(34) = (    -1          0          0      )
                  (    -1          1          0      )
                  (    -1          0          1      )

 cart.    s(34) = (  0.0000000  0.0000000  1.0000000 )
                  (  0.0000000  1.0000000  0.0000000 )
                  (  1.0000000  0.0000000  0.0000000 )


      isym = 35     inv.  90 deg rotation - cart. axis [0,1,0]   

 cryst.   s(35) = (     0         -1          1      )
                  (     1         -1          0      )
                  (     0         -1          0      )

 cart.    s(35) = (  0.0000000  0.0000000 -1.0000000 )
                  (  0.0000000 -1.0000000  0.0000000 )
                  (  1.0000000  0.0000000  0.0000000 )


      isym = 36     inv.  90 deg rotation - cart. axis [0,-1,0]  

 cryst.   s(36) = (     0          1         -1      )
                  (     0          0         -1      )
                  (     1          0         -1      )

 cart.    s(36) = (  0.0000000  0.0000000  1.0000000 )
                  (  0.0000000 -1.0000000  0.0000000 )
                  ( -1.0000000  0.0000000  0.0000000 )


      isym = 37     inv. 180 deg rotation - cart. axis [0,1,1]   

 cryst.   s(37) = (     1         -1          0      )
                  (     0         -1          0      )
                  (     0         -1          1      )

 cart.    s(37) = (  1.0000000  0.0000000  0.0000000 )
                  (  0.0000000  0.0000000 -1.0000000 )
                  (  0.0000000 -1.0000000  0.0000000 )


      isym = 38     inv. 180 deg rotation - cart. axis [0,1,-1]  

 cryst.   s(38) = (     0          0          1      )
                  (     0          1          0      )
                  (     1          0          0      )

 cart.    s(38) = (  1.0000000  0.0000000  0.0000000 )
                  (  0.0000000  0.0000000  1.0000000 )
                  (  0.0000000  1.0000000  0.0000000 )


      isym = 39     inv.  90 deg rotation - cart. axis [-1,0,0]  

 cryst.   s(39) = (     0          0         -1      )
                  (     1          0         -1      )
                  (     0          1         -1      )

 cart.    s(39) = ( -1.0000000  0.0000000  0.0000000 )
                  (  0.0000000  0.0000000 -1.0000000 )
                  (  0.0000000  1.0000000  0.0000000 )


      isym = 40     inv.  90 deg rotation - cart. axis [1,0,0]   

 cryst.   s(40) = (    -1          1          0      )
                  (    -1          0          1      )
                  (    -1          0          0      )

 cart.    s(40) = ( -1.0000000  0.0000000  0.0000000 )
                  (  0.0000000  0.0000000  1.0000000 )
                  (  0.0000000 -1.0000000  0.0000000 )


      isym = 41     inv. 120 deg rotation - cart. axis [-1,-1,-1]

 cryst.   s(41) = (     1          0         -1      )
                  (     1         -1          0      )
                  (     1          0          0      )

 cart.    s(41) = (  0.0000000 -1.0000000  0.0000000 )
                  (  0.0000000  0.0000000 -1.0000000 )
                  ( -1.0000000  0.0000000  0.0000000 )


      isym = 42     inv. 120 deg rotation - cart. axis [-1,1,1]  

 cryst.   s(42) = (     0         -1          0      )
                  (     0          0         -1      )
                  (    -1          0          0      )

 cart.    s(42) = (  0.0000000  1.0000000  0.0000000 )
                  (  0.0000000  0.0000000 -1.0000000 )
                  (  1.0000000  0.0000000  0.0000000 )


      isym = 43     inv. 120 deg rotation - cart. axis [1,1,-1]  

 cryst.   s(43) = (    -1          0          1      )
                  (     0          0          1      )
                  (     0         -1          1      )

 cart.    s(43) = (  0.0000000 -1.0000000  0.0000000 )
                  (  0.0000000  0.0000000  1.0000000 )
                  (  1.0000000  0.0000000  0.0000000 )


      isym = 44     inv. 120 deg rotation - cart. axis [1,-1,1]  

 cryst.   s(44) = (     0          1          0      )
                  (    -1          1          0      )
                  (     0          1         -1      )

 cart.    s(44) = (  0.0000000  1.0000000  0.0000000 )
                  (  0.0000000  0.0000000  1.0000000 )
                  ( -1.0000000  0.0000000  0.0000000 )


      isym = 45     inv. 120 deg rotation - cart. axis [1,1,1]   

 cryst.   s(45) = (     0          0          1      )
                  (     0         -1          1      )
                  (    -1          0          1      )

 cart.    s(45) = (  0.0000000  0.0000000 -1.0000000 )
                  ( -1.0000000  0.0000000  0.0000000 )
                  (  0.0000000 -1.0000000  0.0000000 )


      isym = 46     inv. 120 deg rotation - cart. axis [-1,1,-1] 

 cryst.   s(46) = (     1         -1          0      )
                  (     1          0          0      )
                  (     1          0         -1      )

 cart.    s(46) = (  0.0000000  0.0000000 -1.0000000 )
                  (  1.0000000  0.0000000  0.0000000 )
                  (  0.0000000  1.0000000  0.0000000 )


      isym = 47     inv. 120 deg rotation - cart. axis [1,-1,-1] 

 cryst.   s(47) = (     0          0         -1      )
                  (    -1          0          0      )
                  (     0         -1          0      )

 cart.    s(47) = (  0.0000000  0.0000000  1.0000000 )
                  (  1.0000000  0.0000000  0.0000000 )
                  (  0.0000000 -1.0000000  0.0000000 )


      isym = 48     inv. 120 deg rotation - cart. axis [-1,-1,1] 

 cryst.   s(48) = (    -1          1          0      )
                  (     0          1         -1      )
                  (     0          1          0      )

 cart.    s(48) = (  0.0000000  0.0000000  1.0000000 )
                  ( -1.0000000  0.0000000  0.0000000 )
                  (  0.0000000  1.0000000  0.0000000 )


     point group O_h (m-3m) 
     there are 10 classes
     the character table:

       E     8C3   3C2   6C4   6C2'  i     8S6   3s_h  6S4   6s_d 
A_1g   1.00  1.00  1.00  1.00  1.00  1.00  1.00  1.00  1.00  1.00
A_2g   1.00  1.00  1.00 -1.00 -1.00  1.00  1.00  1.00 -1.00 -1.00
E_g    2.00 -1.00  2.00  0.00  0.00  2.00 -1.00  2.00  0.00  0.00
T_1g   3.00  0.00 -1.00  1.00 -1.00  3.00  0.00 -1.00  1.00 -1.00
T_2g   3.00  0.00 -1.00 -1.00  1.00  3.00  0.00 -1.00 -1.00  1.00
A_1u   1.00  1.00  1.00  1.00  1.00 -1.00 -1.00 -1.00 -1.00 -1.00
A_2u   1.00  1.00  1.00 -1.00 -1.00 -1.00 -1.00 -1.00  1.00  1.00
E_u    2.00 -1.00  2.00  0.00  0.00 -2.00  1.00 -2.00  0.00  0.00
T_1u   3.00  0.00 -1.00  1.00 -1.00 -3.00  0.00  1.00 -1.00  1.00
T_2u   3.00  0.00 -1.00 -1.00  1.00 -3.00  0.00  1.00  1.00 -1.00

     the symmetry operations in each class and the name of the first element:

     E        1
          identity                                               
     8C3     17   19   20   18   24   21   22   23
          120 deg rotation - cart. axis [-1,-1,-1]               
     3C2      2    4    3
          180 deg rotation - cart. axis [0,0,1]                  
     6C4      7    8   15   16   12   11
           90 deg rotation - cart. axis [0,0,-1]                 
     6C2'     5    6   14   13   10    9
          180 deg rotation - cart. axis [1,1,0]                  
     i       25
          inversion                                              
     8S6     41   43   44   42   48   45   46   47
          inv. 120 deg rotation - cart. axis [-1,-1,-1]          
     3s_h    26   28   27
          inv. 180 deg rotation - cart. axis [0,0,1]             
     6S4     31   32   39   40   36   35
          inv.  90 deg rotation - cart. axis [0,0,-1]            
     6s_d    29   30   38   37   34   33
          inv. 180 deg rotation - cart. axis [1,1,0]             

   Cartesian axes

     site n.     atom                  positions (alat units)
         1           Cu  tau(   1) = (   0.0000000   0.0000000   0.0000000  )
         2           Pt  tau(   2) = (   0.5000000   0.5000000   0.5000000  )
         3           Ni  tau(   3) = (   0.2500000   0.2500000   0.2500000  )
         4           Ni  tau(   4) = (   0.7500000   0.7500000   0.7500000  )

   Crystallographic axes

     site n.     atom                  positions (cryst. coord.)
         1           Cu  tau(   1) = (  0.0000000  0.0000000  0.0000000  )
         2           Pt  tau(   2) = ( -0.5000000  1.5000000 -0.5000000  )
         3           Ni  tau(   3) = ( -0.2500000  0.7500000 -0.2500000  )
         4           Ni  tau(   4) = ( -0.7500000  2.2500000 -0.7500000  )

     number of k points=    29  Methfessel-Paxton smearing, width (Ry)=  0.0050
                       cart. coord. in units 2pi/alat
        k(    1) = (   0.0000000   0.0000000   0.0000000), wk =   0.0039062
        k(    2) = (  -0.1250000   0.1250000  -0.1250000), wk =   0.0312500
        k(    3) = (  -0.2500000   0.2500000  -0.2500000), wk =   0.0312500
        k(    4) = (  -0.3750000   0.3750000  -0.3750000), wk =   0.0312500
        k(    5) = (   0.5000000  -0.5000000   0.5000000), wk =   0.0156250
        k(    6) = (   0.0000000   0.2500000   0.0000000), wk =   0.0234375
        k(    7) = (  -0.1250000   0.3750000  -0.1250000), wk =   0.0937500
        k(    8) = (  -0.2500000   0.5000000  -0.2500000), wk =   0.0937500
        k(    9) = (   0.6250000  -0.3750000   0.6250000), wk =   0.0937500
        k(   10) = (   0.5000000  -0.2500000   0.5000000), wk =   0.0937500
        k(   11) = (   0.3750000  -0.1250000   0.3750000), wk =   0.0937500
        k(   12) = (   0.2500000   0.0000000   0.2500000), wk =   0.0468750
        k(   13) = (   0.0000000   0.5000000   0.0000000), wk =   0.0234375
        k(   14) = (  -0.1250000   0.6250000  -0.1250000), wk =   0.0937500
        k(   15) = (   0.7500000  -0.2500000   0.7500000), wk =   0.0937500
        k(   16) = (   0.6250000  -0.1250000   0.6250000), wk =   0.0937500
        k(   17) = (   0.5000000   0.0000000   0.5000000), wk =   0.0468750
        k(   18) = (   0.0000000   0.7500000   0.0000000), wk =   0.0234375
        k(   19) = (   0.8750000  -0.1250000   0.8750000), wk =   0.0937500
        k(   20) = (   0.7500000   0.0000000   0.7500000), wk =   0.0468750
        k(   21) = (   0.0000000  -1.0000000   0.0000000), wk =   0.0117188
        k(   22) = (  -0.2500000   0.5000000   0.0000000), wk =   0.0937500
        k(   23) = (   0.6250000  -0.3750000   0.8750000), wk =   0.1875000
        k(   24) = (   0.5000000  -0.2500000   0.7500000), wk =   0.0937500
        k(   25) = (   0.7500000  -0.2500000   1.0000000), wk =   0.0937500
        k(   26) = (   0.6250000  -0.1250000   0.8750000), wk =   0.1875000
        k(   27) = (   0.5000000   0.0000000   0.7500000), wk =   0.0937500
        k(   28) = (  -0.2500000  -1.0000000   0.0000000), wk =   0.0468750
        k(   29) = (  -0.5000000  -1.0000000   0.0000000), wk =   0.0234375

                       cryst. coord.
        k(    1) = (   0.0000000   0.0000000   0.0000000), wk =   0.0039062
        k(    2) = (   0.0000000   0.0000000   0.1250000), wk =   0.0312500
        k(    3) = (   0.0000000   0.0000000   0.2500000), wk =   0.0312500
        k(    4) = (   0.0000000   0.0000000   0.3750000), wk =   0.0312500
        k(    5) = (   0.0000000   0.0000000  -0.5000000), wk =   0.0156250
        k(    6) = (   0.0000000   0.1250000   0.1250000), wk =   0.0234375
        k(    7) = (   0.0000000   0.1250000   0.2500000), wk =   0.0937500
        k(    8) = (   0.0000000   0.1250000   0.3750000), wk =   0.0937500
        k(    9) = (   0.0000000   0.1250000  -0.5000000), wk =   0.0937500
        k(   10) = (   0.0000000   0.1250000  -0.3750000), wk =   0.0937500
        k(   11) = (   0.0000000   0.1250000  -0.2500000), wk =   0.0937500
        k(   12) = (   0.0000000   0.1250000  -0.1250000), wk =   0.0468750
        k(   13) = (   0.0000000   0.2500000   0.2500000), wk =   0.0234375
        k(   14) = (   0.0000000   0.2500000   0.3750000), wk =   0.0937500
        k(   15) = (   0.0000000   0.2500000  -0.5000000), wk =   0.0937500
        k(   16) = (   0.0000000   0.2500000  -0.3750000), wk =   0.0937500
        k(   17) = (   0.0000000   0.2500000  -0.2500000), wk =   0.0468750
        k(   18) = (   0.0000000   0.3750000   0.3750000), wk =   0.0234375
        k(   19) = (   0.0000000   0.3750000  -0.5000000), wk =   0.0937500
        k(   20) = (   0.0000000   0.3750000  -0.3750000), wk =   0.0468750
        k(   21) = (   0.0000000  -0.5000000  -0.5000000), wk =   0.0117188
        k(   22) = (   0.1250000   0.2500000   0.3750000), wk =   0.0937500
        k(   23) = (   0.1250000   0.2500000  -0.5000000), wk =   0.1875000
        k(   24) = (   0.1250000   0.2500000  -0.3750000), wk =   0.0937500
        k(   25) = (   0.1250000   0.3750000  -0.5000000), wk =   0.0937500
        k(   26) = (   0.1250000   0.3750000  -0.3750000), wk =   0.1875000
        k(   27) = (   0.1250000   0.3750000  -0.2500000), wk =   0.0937500
        k(   28) = (   0.1250000  -0.5000000  -0.3750000), wk =   0.0468750
        k(   29) = (   0.2500000  -0.5000000  -0.2500000), wk =   0.0234375

     Dense  grid:    14649 G-vectors     FFT dimensions: (  36,  36,  36)

     Dynamical RAM for                 wfc:       0.84 MB

     Dynamical RAM for     wfc (w. buffer):      25.12 MB

     Dynamical RAM for           str. fact:       0.67 MB

     Dynamical RAM for           local pot:       0.00 MB

     Dynamical RAM for          nlocal pot:       2.01 MB

     Dynamical RAM for                qrad:       3.41 MB

     Dynamical RAM for          rho,v,vnew:       1.74 MB

     Dynamical RAM for               rhoin:       0.58 MB

     Dynamical RAM for            rho*nmix:       3.58 MB

     Dynamical RAM for           G-vectors:       0.95 MB

     Dynamical RAM for          h,s,v(r/c):       0.16 MB

     Dynamical RAM for          <psi|beta>:       0.03 MB

     Dynamical RAM for                 psi:       1.67 MB

     Dynamical RAM for                hpsi:       1.67 MB

     Dynamical RAM for                spsi:       1.67 MB

     Dynamical RAM for      wfcinit/wfcrot:       2.04 MB

     Dynamical RAM for           addusdens:      42.02 MB

     Estimated static dynamical RAM per process >      40.72 MB

     Estimated max dynamical RAM per process >      82.75 MB

     Initial potential from superposition of free atoms

     starting charge   40.99910, renormalised to   41.00000
     Starting wfcs are   36 randomized atomic wfcs
     Checking if some PAW data can be deallocated... 

     total cpu time spent up to now is        2.7 secs

     Self-consistent Calculation

     iteration #  1     ecut=    50.00 Ry     beta= 0.70
     Davidson diagonalization with overlap
     ethr =  1.00E-02,  avg # of iterations =  4.3

     total cpu time spent up to now is        6.9 secs

     total energy              =   -1329.51097549 Ry
     estimated scf accuracy    <       2.91071258 Ry

     iteration #  2     ecut=    50.00 Ry     beta= 0.70
     Davidson diagonalization with overlap
     ethr =  7.10E-03,  avg # of iterations =  3.1

     total cpu time spent up to now is       11.6 secs

     total energy              =   -1327.61669796 Ry
     estimated scf accuracy    <      45.82657332 Ry

     iteration #  3     ecut=    50.00 Ry     beta= 0.70
     Davidson diagonalization with overlap
     ethr =  7.10E-03,  avg # of iterations =  3.0

     total cpu time spent up to now is       15.7 secs

     total energy              =   -1331.66970342 Ry
     estimated scf accuracy    <       0.98211381 Ry

     iteration #  4     ecut=    50.00 Ry     beta= 0.70
     Davidson diagonalization with overlap
     ethr =  2.40E-03,  avg # of iterations =  1.4

     total cpu time spent up to now is       19.2 secs

     total energy              =   -1331.75042858 Ry
     estimated scf accuracy    <       0.13533743 Ry

     iteration #  5     ecut=    50.00 Ry     beta= 0.70
     Davidson diagonalization with overlap
     ethr =  3.30E-04,  avg # of iterations =  3.3

     total cpu time spent up to now is       23.0 secs

     total energy              =   -1331.75846492 Ry
     estimated scf accuracy    <       0.04359392 Ry

     iteration #  6     ecut=    50.00 Ry     beta= 0.70
     Davidson diagonalization with overlap
     ethr =  1.06E-04,  avg # of iterations =  2.8

     total cpu time spent up to now is       26.7 secs

     total energy              =   -1331.76577585 Ry
     estimated scf accuracy    <       0.00099815 Ry

     iteration #  7     ecut=    50.00 Ry     beta= 0.70
     Davidson diagonalization with overlap
     c_bands:  1 eigenvalues not converged
     c_bands:  1 eigenvalues not converged
     c_bands:  1 eigenvalues not converged
     c_bands:  2 eigenvalues not converged
     ethr =  2.43E-06,  avg # of iterations = 10.7

     total cpu time spent up to now is       33.6 secs

     total energy              =   -1331.76758352 Ry
     estimated scf accuracy    <       0.00151973 Ry

     iteration #  8     ecut=    50.00 Ry     beta= 0.70
     Davidson diagonalization with overlap
     ethr =  2.43E-06,  avg # of iterations =  1.9

     total cpu time spent up to now is       37.2 secs

     total energy              =   -1331.76756556 Ry
     estimated scf accuracy    <       0.00040297 Ry

     iteration #  9     ecut=    50.00 Ry     beta= 0.70
     Davidson diagonalization with overlap
     ethr =  9.83E-07,  avg # of iterations =  1.1

     total cpu time spent up to now is       40.6 secs

     total energy              =   -1331.76759012 Ry
     estimated scf accuracy    <       0.00002026 Ry

     iteration # 10     ecut=    50.00 Ry     beta= 0.70
     Davidson diagonalization with overlap
     ethr =  4.94E-08,  avg # of iterations =  4.1

     total cpu time spent up to now is       44.8 secs

     total energy              =   -1331.76759729 Ry
     estimated scf accuracy    <       0.00000351 Ry

     iteration # 11     ecut=    50.00 Ry     beta= 0.70
     Davidson diagonalization with overlap
     ethr =  8.56E-09,  avg # of iterations =  2.2

     total cpu time spent up to now is       48.5 secs

     total energy              =   -1331.76759775 Ry
     estimated scf accuracy    <       0.00000010 Ry

     iteration # 12     ecut=    50.00 Ry     beta= 0.70
     Davidson diagonalization with overlap
     ethr =  2.54E-10,  avg # of iterations =  5.4

     total cpu time spent up to now is       53.8 secs

     End of self-consistent calculation

          k = 0.0000 0.0000 0.0000 (  1837 PWs)   bands (ev):

     5.9891  10.4790  10.4790  11.0692  11.0692  11.0692  13.0531  13.0531
    13.0531  13.1788  13.1788  13.1788  14.3690  14.3690  15.5141  15.5141
    15.5333  15.5333  15.8520  15.8520  15.8520  23.4227  23.4227  23.4227
    24.5403  24.6148  25.7518  25.7656  25.7657  25.7657

     occupation numbers 
     1.0000   1.0000   1.0000   1.0000   1.0000   1.0000   1.0000   1.0000
     1.0000   1.0000   1.0000   1.0000   1.0000   1.0000   1.0000   1.0000
     1.0000   1.0000   1.0275   1.0275   1.0275  -0.0000  -0.0000  -0.0000
    -0.0000  -0.0000  -0.0000  -0.0000  -0.0000  -0.0000

          k =-0.1250 0.1250-0.1250 (  1841 PWs)   bands (ev):

     6.2440  10.5714  10.5714  10.9848  11.1180  11.1180  12.9475  13.0078
    13.0078  13.1321  13.1321  13.2882  14.4024  14.4024  15.4528  15.4528
    15.4810  15.4895  15.4895  15.8317  15.8317  21.6178  23.3179  23.3179
    24.0327  24.8541  24.8541  25.0985  25.5872  26.8240

     occupation numbers 
     1.0000   1.0000   1.0000   1.0000   1.0000   1.0000   1.0000   1.0000
     1.0000   1.0000   1.0000   1.0000   1.0000   1.0000   1.0000   1.0000
     1.0000   1.0000   1.0000   1.0143   1.0143  -0.0000  -0.0000  -0.0000
    -0.0000  -0.0000  -0.0000  -0.0000  -0.0000  -0.0000

          k =-0.2500 0.2500-0.2500 (  1847 PWs)   bands (ev):

     6.9774  10.8095  10.8095  10.8478  11.2730  11.2730  12.4926  12.8698
    12.8698  12.9863  12.9863  13.5079  14.4968  14.4968  14.7567  15.2698
    15.2698  15.4178  15.4178  15.7855  15.7855  19.2059  22.9897  22.9897
    23.5408  24.1991  24.1991  25.3323  27.2358  28.1673

     occupation numbers 
     1.0000   1.0000   1.0000   1.0000   1.0000   1.0000   1.0000   1.0000
     1.0000   1.0000   1.0000   1.0000   1.0000   1.0000   1.0000   1.0000
     1.0000   1.0000   1.0000   1.0013   1.0013  -0.0000  -0.0000  -0.0000
    -0.0000  -0.0000  -0.0000  -0.0000  -0.0000  -0.0000

          k =-0.3750 0.3750-0.3750 (  1844 PWs)   bands (ev):

     8.0742  10.6055  11.0580  11.0580  11.5551  11.5551  11.8711  12.6210
    12.6210  12.7977  12.7977  13.1278  14.6203  14.6203  14.8028  15.0866
    15.0866  15.3604  15.3604  15.7176  15.7176  17.2950  22.5896  22.5896
    23.3050  23.8769  23.8769  25.4249  29.7088  29.8350

     occupation numbers 
     1.0000   1.0000   1.0000   1.0000   1.0000   1.0000   1.0000   1.0000
     1.0000   1.0000   1.0000   1.0000   1.0000   1.0000   1.0000   1.0000
     1.0000   1.0000   1.0000   1.0000   1.0000  -0.0000  -0.0000  -0.0000
    -0.0000  -0.0000  -0.0000  -0.0000  -0.0000  -0.0000

          k = 0.5000-0.5000 0.5000 (  1850 PWs)   bands (ev):

     9.0020   9.9719  11.1590  11.1590  11.7932  11.7932  11.8308  12.4000
    12.4000  12.6244  12.7126  12.7126  14.6843  14.6843  15.0168  15.0168
    15.3359  15.3359  15.3584  15.6778  15.6778  16.2639  22.4191  22.4191
    23.2366  23.7837  23.7837  25.4418  31.1582  31.1582

     occupation numbers 
     1.0000   1.0000   1.0000   1.0000   1.0000   1.0000   1.0000   1.0000
     1.0000   1.0000   1.0000   1.0000   1.0000   1.0000   1.0000   1.0000
     1.0000   1.0000   1.0000   1.0000   1.0000  -0.0000  -0.0000  -0.0000
    -0.0000  -0.0000  -0.0000  -0.0000  -0.0000  -0.0000

          k = 0.0000 0.2500 0.0000 (  1840 PWs)   bands (ev):

     6.3284  10.5716  10.6231  10.8579  11.1738  11.1738  12.5938  13.1576
    13.1576  13.2147  13.2147  13.2518  14.3409  14.4446  15.3862  15.3942
    15.5090  15.5497  15.5827  15.5827  15.8193  22.2065  22.2065  22.5783
    23.5633  24.1542  25.3157  25.3157  26.8654  26.9738

     occupation numbers 
     1.0000   1.0000   1.0000   1.0000   1.0000   1.0000   1.0000   1.0000
     1.0000   1.0000   1.0000   1.0000   1.0000   1.0000   1.0000   1.0000
     1.0000   1.0000   1.0000   1.0000   1.0084  -0.0000  -0.0000  -0.0000
    -0.0000  -0.0000  -0.0000  -0.0000  -0.0000  -0.0000

          k =-0.1250 0.3750-0.1250 (  1832 PWs)   bands (ev):

     6.9004  10.6687  10.7082  10.8318  11.2995  11.3148  12.2256  13.0412
    13.0804  13.2205  13.2688  13.4579  14.3785  14.4982  14.9686  15.1818
    15.2884  15.3539  15.5235  15.5383  15.8703  19.9354  21.3026  22.0888
    23.0883  24.6470  25.6654  25.6913  27.0563  28.4412

     occupation numbers 
     1.0000   1.0000   1.0000   1.0000   1.0000   1.0000   1.0000   1.0000
     1.0000   1.0000   1.0000   1.0000   1.0000   1.0000   1.0000   1.0000
     1.0000   1.0000   1.0000   1.0000   1.0354  -0.0000  -0.0000  -0.0000
    -0.0000  -0.0000  -0.0000  -0.0000  -0.0000  -0.0000

          k =-0.2500 0.5000-0.2500 (  1840 PWs)   bands (ev):

     7.8745  10.5088  10.8616  11.0874  11.5222  11.5447  11.9027  12.8234
    12.8708  12.9539  13.0545  13.3991  14.5221  14.5505  14.6586  14.9526
    15.1119  15.3067  15.4568  15.5758  15.8574  17.8085  20.8252  21.2010
    23.0256  25.3006  25.6984  26.6634  27.0343  30.5073

     occupation numbers 
     1.0000   1.0000   1.0000   1.0000   1.0000   1.0000   1.0000   1.0000
     1.0000   1.0000   1.0000   1.0000   1.0000   1.0000   1.0000   1.0000
     1.0000   1.0000   1.0000   1.0000   1.0308  -0.0000  -0.0000  -0.0000
    -0.0000  -0.0000  -0.0000  -0.0000  -0.0000  -0.0000

          k = 0.6250-0.3750 0.6250 (  1831 PWs)   bands (ev):

     8.9908  10.0176  10.9440  11.2429  11.6013  11.7840  12.0244  12.5612
    12.5747  12.7762  12.8005  12.8589  14.6142  14.6334  14.8522  14.9152
    15.1995  15.3063  15.4489  15.7296  15.7417  16.3779  20.5383  20.8952
    23.0280  25.2997  25.4236  26.8792  29.0651  31.3778

     occupation numbers 
     1.0000   1.0000   1.0000   1.0000   1.0000   1.0000   1.0000   1.0000
     1.0000   1.0000   1.0000   1.0000   1.0000   1.0000   1.0000   1.0000
     1.0000   1.0000   1.0000   1.0000   1.0000  -0.0000  -0.0000  -0.0000
    -0.0000  -0.0000  -0.0000  -0.0000  -0.0000  -0.0000

          k = 0.5000-0.2500 0.5000 (  1823 PWs)   bands (ev):

     8.6300  10.3085  10.9525  11.2163  11.5844  11.6381  11.9875  12.4933
    12.7167  12.7302  12.9421  12.9885  14.6133  14.6227  14.8268  14.9449
    15.0096  15.3324  15.3770  15.5789  15.9367  16.7959  20.2524  21.5255
    23.1278  25.1169  25.2021  26.9838  29.4636  29.5590

     occupation numbers 
     1.0000   1.0000   1.0000   1.0000   1.0000   1.0000   1.0000   1.0000
     1.0000   1.0000   1.0000   1.0000   1.0000   1.0000   1.0000   1.0000
     1.0000   1.0000   1.0000   1.0000   0.7113  -0.0000  -0.0000  -0.0000
    -0.0000  -0.0000  -0.0000  -0.0000  -0.0000  -0.0000

          k = 0.3750-0.1250 0.3750 (  1842 PWs)   bands (ev):

     7.5110  10.6753  10.8668  10.9983  11.3086  11.5209  12.1528  12.6298
    12.8644  12.9616  13.2238  13.5217  14.4882  14.5503  14.6411  14.9680
    15.1528  15.3566  15.4018  15.5140  16.0263  18.5207  20.4152  22.5683
    23.3663  24.9670  25.0740  26.5226  27.4383  27.7733

     occupation numbers 
     1.0000   1.0000   1.0000   1.0000   1.0000   1.0000   1.0000   1.0000
     1.0000   1.0000   1.0000   1.0000   1.0000   1.0000   1.0000   1.0000
     1.0000   1.0000   1.0000   1.0000  -0.0301  -0.0000  -0.0000  -0.0000
    -0.0000  -0.0000  -0.0000  -0.0000  -0.0000  -0.0000

          k = 0.2500 0.0000 0.2500 (  1839 PWs)   bands (ev):

     6.6578  10.7027  10.7132  10.8312  11.1543  11.2878  12.6278  12.7984
    13.0303  13.1152  13.2688  13.4181  14.3964  14.4777  15.1536  15.2550
    15.3400  15.4427  15.4788  15.5116  15.9873  20.6700  21.1439  23.5779
    23.8444  24.7322  24.9552  25.6211  26.1109  26.5349

     occupation numbers 
     1.0000   1.0000   1.0000   1.0000   1.0000   1.0000   1.0000   1.0000
     1.0000   1.0000   1.0000   1.0000   1.0000   1.0000   1.0000   1.0000
     1.0000   1.0000   1.0000   1.0000   0.1380  -0.0000  -0.0000  -0.0000
    -0.0000  -0.0000  -0.0000  -0.0000  -0.0000  -0.0000

          k = 0.0000 0.5000 0.0000 (  1828 PWs)   bands (ev):

     7.2953  10.3753  10.6323  11.0277  11.4186  11.4186  11.8568  13.1196
    13.1196  13.4628  13.7300  13.7300  14.2181  14.5032  15.0103  15.0103
    15.0274  15.1853  15.4975  15.6045  15.6461  19.9716  19.9716  20.3125
    22.1995  23.9177  26.9526  26.9526  29.4044  30.2273

     occupation numbers 
     1.0000   1.0000   1.0000   1.0000   1.0000   1.0000   1.0000   1.0000
     1.0000   1.0000   1.0000   1.0000   1.0000   1.0000   1.0000   1.0000
     1.0000   1.0000   1.0000   1.0000   1.0000  -0.0000  -0.0000  -0.0000
    -0.0000  -0.0000  -0.0000  -0.0000  -0.0000  -0.0000

          k =-0.1250 0.6250-0.1250 (  1833 PWs)   bands (ev):

     8.0929  10.1838  10.5466  11.2908  11.5021  11.5830  11.7867  13.0073
    13.0128  13.5909  13.7122  13.8093  14.2662  14.4914  14.6321  14.7155
    15.0814  15.1073  15.5333  15.6123  15.6465  18.1560  19.1429  19.1514
    22.6277  24.4400  27.4893  27.6849  29.9153  31.6476

     occupation numbers 
     1.0000   1.0000   1.0000   1.0000   1.0000   1.0000   1.0000   1.0000
     1.0000   1.0000   1.0000   1.0000   1.0000   1.0000   1.0000   1.0000
     1.0000   1.0000   1.0000   1.0000   1.0000  -0.0000  -0.0000  -0.0000
    -0.0000  -0.0000  -0.0000  -0.0000  -0.0000  -0.0000

          k = 0.7500-0.2500 0.7500 (  1821 PWs)   bands (ev):

     9.1123   9.9866  10.5134  11.3357  11.4663  11.7814  12.1817  12.7461
    12.9066  13.2120  13.2293  13.4140  14.3730  14.5069  14.6039  14.8569
    15.0439  15.2287  15.6055  15.6491  15.8531  16.5607  18.3699  19.0000
    22.9102  26.1243  27.3749  27.6855  29.8201  31.9120

     occupation numbers 
     1.0000   1.0000   1.0000   1.0000   1.0000   1.0000   1.0000   1.0000
     1.0000   1.0000   1.0000   1.0000   1.0000   1.0000   1.0000   1.0000
     1.0000   1.0000   1.0000   1.0000   1.0282  -0.0000  -0.0000  -0.0000
    -0.0000  -0.0000  -0.0000  -0.0000  -0.0000  -0.0000

          k = 0.6250-0.1250 0.6250 (  1820 PWs)   bands (ev):

     9.3244  10.1066  10.6393  11.1561  11.4961  11.7476  12.5864  12.6043
    12.7589  12.8120  12.9994  13.1880  14.4416  14.5587  14.6288  14.7690
    15.1466  15.2584  15.3844  15.6578  16.1476  16.4577  18.0042  19.6762
    23.0268  26.8689  27.3859  28.2019  29.4372  29.5541

     occupation numbers 
     1.0000   1.0000   1.0000   1.0000   1.0000   1.0000   1.0000   1.0000
     1.0000   1.0000   1.0000   1.0000   1.0000   1.0000   1.0000   1.0000
     1.0000   1.0000   1.0000   1.0000  -0.0002  -0.0000  -0.0000  -0.0000
    -0.0000  -0.0000  -0.0000  -0.0000  -0.0000  -0.0000

          k = 0.5000 0.0000 0.5000 (  1829 PWs)   bands (ev):

     8.3871  10.5567  10.7192  11.3594  11.4192  11.4284  12.2008  12.5634
    12.7214  12.9106  13.3361  13.3991  14.4309  14.5647  14.6325  14.7632
    14.9143  15.2960  15.3223  15.5403  16.1705  17.9326  18.2355  20.9808
    23.1511  26.5047  26.8163  27.1013  27.2909  29.9722

     occupation numbers 
     1.0000   1.0000   1.0000   1.0000   1.0000   1.0000   1.0000   1.0000
     1.0000   1.0000   1.0000   1.0000   1.0000   1.0000   1.0000   1.0000
     1.0000   1.0000   1.0000   1.0000  -0.0000  -0.0000  -0.0000  -0.0000
    -0.0000  -0.0000  -0.0000  -0.0000  -0.0000  -0.0000

          k = 0.0000 0.7500 0.0000 (  1808 PWs)   bands (ev):

     8.6599   9.9293  10.3372  11.5035  11.5806  11.6469  11.6469  13.1013
    13.1013  13.7443  13.8741  14.4650  14.4998  14.4998  14.6698  14.6698
    14.7380  15.0226  15.3752  15.4860  15.7452  17.6432  17.8806  17.8806
    22.0939  23.8822  29.4262  29.4262  32.3084  32.4354

     occupation numbers 
     1.0000   1.0000   1.0000   1.0000   1.0000   1.0000   1.0000   1.0000
     1.0000   1.0000   1.0000   1.0000   1.0000   1.0000   1.0000   1.0000
     1.0000   1.0000   1.0000   1.0000   1.0001  -0.0000  -0.0000  -0.0000
    -0.0000  -0.0000  -0.0000  -0.0000  -0.0000  -0.0000

          k = 0.8750-0.1250 0.8750 (  1812 PWs)   bands (ev):

     9.3466   9.8537  10.3406  11.1338  11.6953  11.8262  11.9337  12.9232
    13.0915  13.5596  13.8720  14.0501  14.2967  14.4635  14.5962  14.9207
    15.0575  15.2224  15.3335  15.8754  15.9220  16.5590  16.9300  17.3074
    22.5341  24.3679  29.8922  30.0578  32.1839  32.2106

     occupation numbers 
     1.0000   1.0000   1.0000   1.0000   1.0000   1.0000   1.0000   1.0000
     1.0000   1.0000   1.0000   1.0000   1.0000   1.0000   1.0000   1.0000
     1.0000   1.0000   1.0000   1.0348   0.8564  -0.0000  -0.0000  -0.0000
    -0.0000  -0.0000  -0.0000  -0.0000  -0.0000  -0.0000

          k = 0.7500 0.0000 0.7500 (  1822 PWs)   bands (ev):

     9.7434   9.8964  10.6510  10.6734  11.7017  11.8386  12.4062  12.6776
    13.0839  13.1867  13.2951  13.7351  14.2251  14.4781  14.5694  14.8683
    15.1941  15.2227  15.2867  15.8654  16.2881  16.4256  16.5206  18.0452
    22.8985  26.0572  29.4299  29.4623  29.5183  30.2804

     occupation numbers 
     1.0000   1.0000   1.0000   1.0000   1.0000   1.0000   1.0000   1.0000
     1.0000   1.0000   1.0000   1.0000   1.0000   1.0000   1.0000   1.0000
     1.0000   1.0000   1.0000   1.0345  -0.0000  -0.0000  -0.0000  -0.0000
    -0.0000  -0.0000  -0.0000  -0.0000  -0.0000  -0.0000

          k = 0.0000-1.0000 0.0000 (  1804 PWs)   bands (ev):

     9.4286   9.7542  10.5253  10.9805  11.7355  11.7355  11.9187  13.1028
    13.1028  13.5775  13.9007  14.3030  14.3030  14.4049  14.6621  14.9576
    15.2244  15.4815  15.8229  15.8229  16.1343  16.2581  16.3285  16.3285
    22.0981  23.8892  32.0292  32.0292  32.3124  32.9102

     occupation numbers 
     1.0000   1.0000   1.0000   1.0000   1.0000   1.0000   1.0000   1.0000
     1.0000   1.0000   1.0000   1.0000   1.0000   1.0000   1.0000   1.0000
     1.0000   1.0000   1.0099   1.0099  -0.0006  -0.0000  -0.0000  -0.0000
    -0.0000  -0.0000  -0.0000  -0.0000  -0.0000  -0.0000

          k =-0.2500 0.5000 0.0000 (  1839 PWs)   bands (ev):

     7.5895  10.4680  10.7375  11.0756  11.3935  11.5150  11.9540  12.9264
    13.0233  13.0912  13.5518  13.5754  14.3902  14.5208  14.7260  14.7873
    15.1528  15.2012  15.5039  15.5113  15.9350  19.0508  19.3848  20.8122
    23.8024  24.7939  25.3007  27.1633  28.3908  28.9007

     occupation numbers 
     1.0000   1.0000   1.0000   1.0000   1.0000   1.0000   1.0000   1.0000
     1.0000   1.0000   1.0000   1.0000   1.0000   1.0000   1.0000   1.0000
     1.0000   1.0000   1.0000   1.0000   0.7300  -0.0000  -0.0000  -0.0000
    -0.0000  -0.0000  -0.0000  -0.0000  -0.0000  -0.0000

          k = 0.6250-0.3750 0.8750 (  1825 PWs)   bands (ev):

     8.5869  10.3069  10.6657  11.2715  11.5078  11.6277  12.1194  12.7354
    12.8354  12.8896  13.2735  13.3956  14.4604  14.5328  14.6511  14.7939
    14.9629  15.2687  15.4653  15.5766  15.9726  17.2316  18.8747  19.8226
    24.0293  25.0729  26.3525  27.6618  29.0373  30.4748

     occupation numbers 
     1.0000   1.0000   1.0000   1.0000   1.0000   1.0000   1.0000   1.0000
     1.0000   1.0000   1.0000   1.0000   1.0000   1.0000   1.0000   1.0000
     1.0000   1.0000   1.0000   1.0000   0.2818  -0.0000  -0.0000  -0.0000
    -0.0000  -0.0000  -0.0000  -0.0000  -0.0000  -0.0000

          k = 0.5000-0.2500 0.7500 (  1826 PWs)   bands (ev):

     9.4526   9.8381  10.6957  11.2029  11.5392  11.8249  12.4701  12.5952
    12.7166  12.7365  12.9967  13.0558  14.4590  14.6372  14.6888  14.7341
    15.2074  15.3151  15.5829  15.7279  15.9074  16.1562  18.9044  19.2867
    23.9996  24.9987  27.7198  28.0566  29.2453  29.7914

     occupation numbers 
     1.0000   1.0000   1.0000   1.0000   1.0000   1.0000   1.0000   1.0000
     1.0000   1.0000   1.0000   1.0000   1.0000   1.0000   1.0000   1.0000
     1.0000   1.0000   1.0000   1.0000   0.9562  -0.0001  -0.0000  -0.0000
    -0.0000  -0.0000  -0.0000  -0.0000  -0.0000  -0.0000

          k = 0.7500-0.2500 1.0000 (  1821 PWs)   bands (ev):

     8.8901  10.0572  10.3662  11.2809  11.6357  11.6831  12.0028  12.9113
    12.9834  13.4706  13.4997  14.1358  14.2027  14.3428  14.6429  14.6632
    15.0160  15.2807  15.5301  15.6616  15.7302  17.3825  17.6406  18.1174
    23.3300  24.6702  27.2986  29.4764  31.2606  31.8229

     occupation numbers 
     1.0000   1.0000   1.0000   1.0000   1.0000   1.0000   1.0000   1.0000
     1.0000   1.0000   1.0000   1.0000   1.0000   1.0000   1.0000   1.0000
     1.0000   1.0000   1.0000   1.0000   1.0000  -0.0000  -0.0000  -0.0000
    -0.0000  -0.0000  -0.0000  -0.0000  -0.0000  -0.0000

          k = 0.6250-0.1250 0.8750 (  1826 PWs)   bands (ev):

     9.7014   9.9339  10.3801  10.9179  11.7466  11.8641  12.4367  12.7437
    12.9811  13.0462  13.1390  13.6917  14.3095  14.3803  14.6560  14.7917
    15.1436  15.4162  15.5986  15.8367  16.0313  16.1864  17.1979  17.6952
    23.9721  26.1778  26.8453  29.0177  30.0905  32.1945

     occupation numbers 
     1.0000   1.0000   1.0000   1.0000   1.0000   1.0000   1.0000   1.0000
     1.0000   1.0000   1.0000   1.0000   1.0000   1.0000   1.0000   1.0000
     1.0000   1.0000   1.0000   1.0173  -0.0340  -0.0000  -0.0000  -0.0000
    -0.0000  -0.0000  -0.0000  -0.0000  -0.0000  -0.0000

          k = 0.5000 0.0000 0.7500 (  1829 PWs)   bands (ev):

     9.3962  10.2695  10.3755  10.9893  11.7053  11.7700  12.5757  12.6776
    12.7725  12.9490  13.1003  13.4250  14.3045  14.5923  14.6536  14.6901
    15.0843  15.3449  15.4610  15.6515  16.1201  16.8808  17.0765  18.5490
    24.2964  26.2333  26.6880  28.6573  29.4533  30.7479

     occupation numbers 
     1.0000   1.0000   1.0000   1.0000   1.0000   1.0000   1.0000   1.0000
     1.0000   1.0000   1.0000   1.0000   1.0000   1.0000   1.0000   1.0000
     1.0000   1.0000   1.0000   1.0000  -0.0015  -0.0000  -0.0000  -0.0000
    -0.0000  -0.0000  -0.0000  -0.0000  -0.0000  -0.0000

          k =-0.2500-1.0000 0.0000 (  1810 PWs)   bands (ev):

     9.6274   9.8900  10.5458  10.7085  11.8020  11.9017  12.1036  12.9426
    12.9910  13.3366  13.6565  14.0225  14.2549  14.5225  14.6420  14.7305
    15.1285  15.2797  16.0563  16.0736  16.2553  16.2869  16.2982  16.3658
    23.2338  24.6449  29.4721  29.5480  32.2933  32.4234

     occupation numbers 
     1.0000   1.0000   1.0000   1.0000   1.0000   1.0000   1.0000   1.0000
     1.0000   1.0000   1.0000   1.0000   1.0000   1.0000   1.0000   1.0000
     1.0000   1.0000  -0.0277  -0.0163  -0.0000  -0.0000  -0.0000  -0.0000
    -0.0000  -0.0000  -0.0000  -0.0000  -0.0000  -0.0000

          k =-0.5000-1.0000 0.0000 (  1800 PWs)   bands (ev):

     9.8729  10.2544  10.2544  10.5609  11.8849  11.9481  12.7136  12.7136
    12.7787  12.8854  13.4525  13.4525  14.2277  14.5723  14.5723  14.7805
    15.3076  15.7113  15.7113  16.0209  16.1616  16.3674  16.3674  16.4993
    25.9736  26.0596  26.6551  26.6551  32.1292  32.7272

     occupation numbers 
     1.0000   1.0000   1.0000   1.0000   1.0000   1.0000   1.0000   1.0000
     1.0000   1.0000   1.0000   1.0000   1.0000   1.0000   1.0000   1.0000
     1.0000   1.0000   1.0000  -0.0228  -0.0001  -0.0000  -0.0000  -0.0000
    -0.0000  -0.0000  -0.0000  -0.0000  -0.0000  -0.0000

     the Fermi energy is    15.9543 ev

!    total energy              =   -1331.76759787 Ry

     total all-electron energy =    -46220.618682 Ry
     estimated scf accuracy    <       0.00000002 Ry
     smearing contrib. (-TS)   =       0.00003378 Ry
     internal energy E=F+TS    =   -1331.76763165 Ry

     The total energy is F=E-TS. E is the sum of the following terms:
     one-electron contribution =     -23.61773316 Ry
     hartree contribution      =      75.05635102 Ry
     xc contribution           =    -152.35478421 Ry
     ewald contribution        =    -286.12532335 Ry
     one-center paw contrib.   =    -944.72614195 Ry
      -> PAW hartree energy AE =     324.24447698 Ry
      -> PAW hartree energy PS =    -322.87639878 Ry
      -> PAW xc energy AE      =   -1099.08228714 Ry
      -> PAW xc energy PS      =     152.98806699 Ry
      -> total E_H with PAW    =      76.42442922 Ry
      -> total E_XC with PAW   =   -1098.44900437 Ry

     convergence has been achieved in  12 iterations

     Writing output data file ././CuPtNi.save/

     init_run     :      3.56s CPU      2.53s WALL (       1 calls)
     electrons    :     85.06s CPU     51.11s WALL (       1 calls)

     Called by init_run:
     wfcinit      :      2.28s CPU      1.29s WALL (       1 calls)
     wfcinit:atom :      0.05s CPU      0.02s WALL (      29 calls)
     wfcinit:wfcr :      2.00s CPU      1.15s WALL (      29 calls)
     potinit      :      0.45s CPU      0.45s WALL (       1 calls)
     hinit0       :      0.69s CPU      0.69s WALL (       1 calls)

     Called by electrons:
     c_bands      :     65.22s CPU     36.95s WALL (      12 calls)
     sum_band     :     12.48s CPU      7.43s WALL (      12 calls)
     v_of_rho     :      0.39s CPU      0.25s WALL (      13 calls)
     v_h          :      0.02s CPU      0.01s WALL (      13 calls)
     v_xc         :      0.38s CPU      0.24s WALL (      13 calls)
     newd         :      1.24s CPU      1.00s WALL (      13 calls)
     PAW_pot      :      6.20s CPU      5.91s WALL (      13 calls)
     mix_rho      :      0.04s CPU      0.03s WALL (      12 calls)

     Called by c_bands:
     init_us_2    :      1.40s CPU      0.71s WALL (     725 calls)
     cegterg      :     59.43s CPU     33.61s WALL (     348 calls)

     Called by sum_band:
     sum_band:wei :      0.03s CPU      0.01s WALL (      12 calls)
     sum_band:loo :     10.15s CPU      6.20s WALL (      12 calls)
     sum_band:buf :      0.06s CPU      0.03s WALL (     348 calls)
     sum_band:ini :      0.59s CPU      0.34s WALL (     348 calls)
     sum_band:cal :      0.31s CPU      0.22s WALL (     348 calls)
     sum_band:bec :      0.01s CPU      0.01s WALL (     348 calls)
     addusdens    :      2.22s CPU      1.16s WALL (      12 calls)
     addusd:skk   :      0.01s CPU      0.00s WALL (      36 calls)
     addusd:dgemm :      1.19s CPU      0.48s WALL (      36 calls)
     addusd:qvan2 :      0.87s CPU      0.55s WALL (      36 calls)

     Called by *egterg:
     cdiaghg      :      3.48s CPU      1.50s WALL (    1603 calls)
     cegterg:over :      1.49s CPU      0.62s WALL (    1255 calls)
     cegterg:upda :      1.13s CPU      0.42s WALL (    1255 calls)
     cegterg:last :      1.87s CPU      0.70s WALL (     777 calls)
     h_psi        :     50.84s CPU     30.44s WALL (    1632 calls)
     s_psi        :      1.12s CPU      0.50s WALL (    1632 calls)
     g_psi        :      0.54s CPU      0.20s WALL (    1255 calls)

     Called by h_psi:
     h_psi:calbec :      1.13s CPU      0.83s WALL (    1632 calls)
     vloc_psi     :     48.21s CPU     28.89s WALL (    1632 calls)
     add_vuspsi   :      1.17s CPU      0.58s WALL (    1632 calls)

     General routines
     calbec       :      1.44s CPU      1.04s WALL (    1980 calls)
     fft          :      0.17s CPU      0.11s WALL (     143 calls)
     ffts         :      0.02s CPU      0.01s WALL (      12 calls)
     fftw         :     49.49s CPU     29.83s WALL (   68048 calls)

     Parallel routines

     PAW routines
     PAW_pot      :      6.20s CPU      5.91s WALL (      13 calls)
     PAW_symme    :      0.03s CPU      0.03s WALL (      25 calls)

     PWSCF        :   1m28.88s CPU     53.92s WALL


   This run was terminated on:  13:48:54  22May2024            

=------------------------------------------------------------------------------=
   JOB DONE.
=------------------------------------------------------------------------------=
